[Molden Format]
[Title]
Written by TeraChem
[Atoms] Angs
H   1   1      3.81279   20.90612   26.43021
C   2   6      4.12277   20.01886   25.89379
H   3   1      3.87762   19.25978   28.48708
H   4   1      4.23771   20.64549   23.77287
C   5   6      4.33778   19.88293   24.53486
C   6   6      4.10514   18.41325   27.83987
H   7   1      4.64237   17.63629   30.51973
C   8   6      4.34829   18.75082   26.47705
C   9   6      3.99060   16.97646   29.94266
H   10   1      2.96134   17.19892   30.22804
C   11   6      4.17386   17.18537   28.45279
C   12   6      4.68636   18.53338   24.29976
N   13   7      4.76584   17.86254   25.50542
C   14   6      4.31741   15.49346   30.13244
H   15   1      4.79350   18.62368   22.18674
H   16   1      5.25499   15.34170   30.67931
C   17   6      4.81764   17.92719   23.02281
N   18   7      4.42471   15.99550   27.82445
H   19   1      3.55239   14.92921   30.66986
C   20   6      4.47117   14.99564   28.71939
Mg   21   12      4.91898   15.82454   25.72381
C   22   6      4.89319   16.59984   22.70206
N   23   7      4.88625   15.56569   23.60317
C   24   6      4.66068   13.65916   28.36515
C   25   6      4.88405   16.05901   21.28462
H   26   1      3.88732   16.18880   20.84264
H   27   1      5.59072   16.57485   20.62993
N   28   7      4.77418   13.83699   25.86612
C   29   6      4.77480   13.22305   27.05561
C   30   6      4.73541   12.43899   29.26347
H   31   1      3.81988   12.28606   29.84741
H   32   1      5.58779   12.45247   29.95340
C   33   6      5.00791   14.38928   22.97828
C   34   6      5.20437   14.57775   21.48807
C   35   6      4.94267   12.85335   24.93278
C   36   6      5.03473   13.12180   23.57230
C   37   6      4.93129   11.80631   26.92874
H   38   1      4.57558   13.90533   20.89810
C   39   6      4.91514   11.23864   28.30146
H   40   1      6.24879   14.34828   21.24163
C   41   6      5.03241   11.55111   25.59324
O   42   8      5.00262   10.08368   28.63774
H   43   1      5.16453   12.27521   22.90387
H   44   1      5.16156   10.60190   25.08847
[GTO]
    1 0
 s    3 1.00
           18.731137             0.033495
            2.825394             0.234727
            0.640122             0.813757
 s    1 1.00
            0.161278             1.000000

    2 0
 s    6 1.00
         3047.524900             0.001835
          457.369510             0.014037
          103.948690             0.068843
           29.210155             0.232184
            9.286663             0.467941
            3.163927             0.362312
 s    3 1.00
            7.868272            -0.119332
            1.881288            -0.160854
            0.544249             1.143456
 s    1 1.00
            0.168714             1.000000
 p    3 1.00
            7.868272             0.068999
            1.881288             0.316424
            0.544249             0.744308
 p    1 1.00
            0.168714             1.000000
 d    1 1.00
            0.800000             1.000000

    3 0
 s    3 1.00
           18.731137             0.033495
            2.825394             0.234727
            0.640122             0.813757
 s    1 1.00
            0.161278             1.000000

    4 0
 s    3 1.00
           18.731137             0.033495
            2.825394             0.234727
            0.640122             0.813757
 s    1 1.00
            0.161278             1.000000

    5 0
 s    6 1.00
         3047.524900             0.001835
          457.369510             0.014037
          103.948690             0.068843
           29.210155             0.232184
            9.286663             0.467941
            3.163927             0.362312
 s    3 1.00
            7.868272            -0.119332
            1.881288            -0.160854
            0.544249             1.143456
 s    1 1.00
            0.168714             1.000000
 p    3 1.00
            7.868272             0.068999
            1.881288             0.316424
            0.544249             0.744308
 p    1 1.00
            0.168714             1.000000
 d    1 1.00
            0.800000             1.000000

    6 0
 s    6 1.00
         3047.524900             0.001835
          457.369510             0.014037
          103.948690             0.068843
           29.210155             0.232184
            9.286663             0.467941
            3.163927             0.362312
 s    3 1.00
            7.868272            -0.119332
            1.881288            -0.160854
            0.544249             1.143456
 s    1 1.00
            0.168714             1.000000
 p    3 1.00
            7.868272             0.068999
            1.881288             0.316424
            0.544249             0.744308
 p    1 1.00
            0.168714             1.000000
 d    1 1.00
            0.800000             1.000000

    7 0
 s    3 1.00
           18.731137             0.033495
            2.825394             0.234727
            0.640122             0.813757
 s    1 1.00
            0.161278             1.000000

    8 0
 s    6 1.00
         3047.524900             0.001835
          457.369510             0.014037
          103.948690             0.068843
           29.210155             0.232184
            9.286663             0.467941
            3.163927             0.362312
 s    3 1.00
            7.868272            -0.119332
            1.881288            -0.160854
            0.544249             1.143456
 s    1 1.00
            0.168714             1.000000
 p    3 1.00
            7.868272             0.068999
            1.881288             0.316424
            0.544249             0.744308
 p    1 1.00
            0.168714             1.000000
 d    1 1.00
            0.800000             1.000000

    9 0
 s    6 1.00
         3047.524900             0.001835
          457.369510             0.014037
          103.948690             0.068843
           29.210155             0.232184
            9.286663             0.467941
            3.163927             0.362312
 s    3 1.00
            7.868272            -0.119332
            1.881288            -0.160854
            0.544249             1.143456
 s    1 1.00
            0.168714             1.000000
 p    3 1.00
            7.868272             0.068999
            1.881288             0.316424
            0.544249             0.744308
 p    1 1.00
            0.168714             1.000000
 d    1 1.00
            0.800000             1.000000

   10 0
 s    3 1.00
           18.731137             0.033495
            2.825394             0.234727
            0.640122             0.813757
 s    1 1.00
            0.161278             1.000000

   11 0
 s    6 1.00
         3047.524900             0.001835
          457.369510             0.014037
          103.948690             0.068843
           29.210155             0.232184
            9.286663             0.467941
            3.163927             0.362312
 s    3 1.00
            7.868272            -0.119332
            1.881288            -0.160854
            0.544249             1.143456
 s    1 1.00
            0.168714             1.000000
 p    3 1.00
            7.868272             0.068999
            1.881288             0.316424
            0.544249             0.744308
 p    1 1.00
            0.168714             1.000000
 d    1 1.00
            0.800000             1.000000

   12 0
 s    6 1.00
         3047.524900             0.001835
          457.369510             0.014037
          103.948690             0.068843
           29.210155             0.232184
            9.286663             0.467941
            3.163927             0.362312
 s    3 1.00
            7.868272            -0.119332
            1.881288            -0.160854
            0.544249             1.143456
 s    1 1.00
            0.168714             1.000000
 p    3 1.00
            7.868272             0.068999
            1.881288             0.316424
            0.544249             0.744308
 p    1 1.00
            0.168714             1.000000
 d    1 1.00
            0.800000             1.000000

   13 0
 s    6 1.00
         4173.511000             0.001835
          627.457900             0.013995
          142.902100             0.068587
           40.234330             0.232241
           12.820210             0.469070
            4.390437             0.360455
 s    3 1.00
           11.626358            -0.114961
            2.716280            -0.169118
            0.772218             1.145852
 s    1 1.00
            0.212031             1.000000
 p    3 1.00
           11.626358             0.067580
            2.716280             0.323907
            0.772218             0.740895
 p    1 1.00
            0.212031             1.000000
 d    1 1.00
            0.800000             1.000000

   14 0
 s    6 1.00
         3047.524900             0.001835
          457.369510             0.014037
          103.948690             0.068843
           29.210155             0.232184
            9.286663             0.467941
            3.163927             0.362312
 s    3 1.00
            7.868272            -0.119332
            1.881288            -0.160854
            0.544249             1.143456
 s    1 1.00
            0.168714             1.000000
 p    3 1.00
            7.868272             0.068999
            1.881288             0.316424
            0.544249             0.744308
 p    1 1.00
            0.168714             1.000000
 d    1 1.00
            0.800000             1.000000

   15 0
 s    3 1.00
           18.731137             0.033495
            2.825394             0.234727
            0.640122             0.813757
 s    1 1.00
            0.161278             1.000000

   16 0
 s    3 1.00
           18.731137             0.033495
            2.825394             0.234727
            0.640122             0.813757
 s    1 1.00
            0.161278             1.000000

   17 0
 s    6 1.00
         3047.524900             0.001835
          457.369510             0.014037
          103.948690             0.068843
           29.210155             0.232184
            9.286663             0.467941
            3.163927             0.362312
 s    3 1.00
            7.868272            -0.119332
            1.881288            -0.160854
            0.544249             1.143456
 s    1 1.00
            0.168714             1.000000
 p    3 1.00
            7.868272             0.068999
            1.881288             0.316424
            0.544249             0.744308
 p    1 1.00
            0.168714             1.000000
 d    1 1.00
            0.800000             1.000000

   18 0
 s    6 1.00
         4173.511000             0.001835
          627.457900             0.013995
          142.902100             0.068587
           40.234330             0.232241
           12.820210             0.469070
            4.390437             0.360455
 s    3 1.00
           11.626358            -0.114961
            2.716280            -0.169118
            0.772218             1.145852
 s    1 1.00
            0.212031             1.000000
 p    3 1.00
           11.626358             0.067580
            2.716280             0.323907
            0.772218             0.740895
 p    1 1.00
            0.212031             1.000000
 d    1 1.00
            0.800000             1.000000

   19 0
 s    3 1.00
           18.731137             0.033495
            2.825394             0.234727
            0.640122             0.813757
 s    1 1.00
            0.161278             1.000000

   20 0
 s    6 1.00
         3047.524900             0.001835
          457.369510             0.014037
          103.948690             0.068843
           29.210155             0.232184
            9.286663             0.467941
            3.163927             0.362312
 s    3 1.00
            7.868272            -0.119332
            1.881288            -0.160854
            0.544249             1.143456
 s    1 1.00
            0.168714             1.000000
 p    3 1.00
            7.868272             0.068999
            1.881288             0.316424
            0.544249             0.744308
 p    1 1.00
            0.168714             1.000000
 d    1 1.00
            0.800000             1.000000

   21 0
 s    6 1.00
        11722.800000             0.001978
         1759.930000             0.015114
          400.846000             0.073911
          112.807000             0.249191
           35.999700             0.487928
           12.182800             0.319662
 s    6 1.00
          189.180000            -0.003237
           45.211900            -0.041008
           14.356300            -0.112600
            5.138860             0.148633
            1.906520             0.616497
            0.705887             0.364829
 s    3 1.00
            0.929340            -0.212291
            0.269035            -0.107985
            0.117379             1.175845
 s    1 1.00
            0.042106             1.000000
 p    6 1.00
          189.180000             0.004928
           45.211900             0.034989
           14.356300             0.140725
            5.138860             0.333642
            1.906520             0.444940
            0.705887             0.269254
 p    3 1.00
            0.929340            -0.022419
            0.269035             0.192270
            0.117379             0.846181
 p    1 1.00
            0.042106             1.000000
 d    1 1.00
            0.175000             1.000000

   22 0
 s    6 1.00
         3047.524900             0.001835
          457.369510             0.014037
          103.948690             0.068843
           29.210155             0.232184
            9.286663             0.467941
            3.163927             0.362312
 s    3 1.00
            7.868272            -0.119332
            1.881288            -0.160854
            0.544249             1.143456
 s    1 1.00
            0.168714             1.000000
 p    3 1.00
            7.868272             0.068999
            1.881288             0.316424
            0.544249             0.744308
 p    1 1.00
            0.168714             1.000000
 d    1 1.00
            0.800000             1.000000

   23 0
 s    6 1.00
         4173.511000             0.001835
          627.457900             0.013995
          142.902100             0.068587
           40.234330             0.232241
           12.820210             0.469070
            4.390437             0.360455
 s    3 1.00
           11.626358            -0.114961
            2.716280            -0.169118
            0.772218             1.145852
 s    1 1.00
            0.212031             1.000000
 p    3 1.00
           11.626358             0.067580
            2.716280             0.323907
            0.772218             0.740895
 p    1 1.00
            0.212031             1.000000
 d    1 1.00
            0.800000             1.000000

   24 0
 s    6 1.00
         3047.524900             0.001835
          457.369510             0.014037
          103.948690             0.068843
           29.210155             0.232184
            9.286663             0.467941
            3.163927             0.362312
 s    3 1.00
            7.868272            -0.119332
            1.881288            -0.160854
            0.544249             1.143456
 s    1 1.00
            0.168714             1.000000
 p    3 1.00
            7.868272             0.068999
            1.881288             0.316424
            0.544249             0.744308
 p    1 1.00
            0.168714             1.000000
 d    1 1.00
            0.800000             1.000000

   25 0
 s    6 1.00
         3047.524900             0.001835
          457.369510             0.014037
          103.948690             0.068843
           29.210155             0.232184
            9.286663             0.467941
            3.163927             0.362312
 s    3 1.00
            7.868272            -0.119332
            1.881288            -0.160854
            0.544249             1.143456
 s    1 1.00
            0.168714             1.000000
 p    3 1.00
            7.868272             0.068999
            1.881288             0.316424
            0.544249             0.744308
 p    1 1.00
            0.168714             1.000000
 d    1 1.00
            0.800000             1.000000

   26 0
 s    3 1.00
           18.731137             0.033495
            2.825394             0.234727
            0.640122             0.813757
 s    1 1.00
            0.161278             1.000000

   27 0
 s    3 1.00
           18.731137             0.033495
            2.825394             0.234727
            0.640122             0.813757
 s    1 1.00
            0.161278             1.000000

   28 0
 s    6 1.00
         4173.511000             0.001835
          627.457900             0.013995
          142.902100             0.068587
           40.234330             0.232241
           12.820210             0.469070
            4.390437             0.360455
 s    3 1.00
           11.626358            -0.114961
            2.716280            -0.169118
            0.772218             1.145852
 s    1 1.00
            0.212031             1.000000
 p    3 1.00
           11.626358             0.067580
            2.716280             0.323907
            0.772218             0.740895
 p    1 1.00
            0.212031             1.000000
 d    1 1.00
            0.800000             1.000000

   29 0
 s    6 1.00
         3047.524900             0.001835
          457.369510             0.014037
          103.948690             0.068843
           29.210155             0.232184
            9.286663             0.467941
            3.163927             0.362312
 s    3 1.00
            7.868272            -0.119332
            1.881288            -0.160854
            0.544249             1.143456
 s    1 1.00
            0.168714             1.000000
 p    3 1.00
            7.868272             0.068999
            1.881288             0.316424
            0.544249             0.744308
 p    1 1.00
            0.168714             1.000000
 d    1 1.00
            0.800000             1.000000

   30 0
 s    6 1.00
         3047.524900             0.001835
          457.369510             0.014037
          103.948690             0.068843
           29.210155             0.232184
            9.286663             0.467941
            3.163927             0.362312
 s    3 1.00
            7.868272            -0.119332
            1.881288            -0.160854
            0.544249             1.143456
 s    1 1.00
            0.168714             1.000000
 p    3 1.00
            7.868272             0.068999
            1.881288             0.316424
            0.544249             0.744308
 p    1 1.00
            0.168714             1.000000
 d    1 1.00
            0.800000             1.000000

   31 0
 s    3 1.00
           18.731137             0.033495
            2.825394             0.234727
            0.640122             0.813757
 s    1 1.00
            0.161278             1.000000

   32 0
 s    3 1.00
           18.731137             0.033495
            2.825394             0.234727
            0.640122             0.813757
 s    1 1.00
            0.161278             1.000000

   33 0
 s    6 1.00
         3047.524900             0.001835
          457.369510             0.014037
          103.948690             0.068843
           29.210155             0.232184
            9.286663             0.467941
            3.163927             0.362312
 s    3 1.00
            7.868272            -0.119332
            1.881288            -0.160854
            0.544249             1.143456
 s    1 1.00
            0.168714             1.000000
 p    3 1.00
            7.868272             0.068999
            1.881288             0.316424
            0.544249             0.744308
 p    1 1.00
            0.168714             1.000000
 d    1 1.00
            0.800000             1.000000

   34 0
 s    6 1.00
         3047.524900             0.001835
          457.369510             0.014037
          103.948690             0.068843
           29.210155             0.232184
            9.286663             0.467941
            3.163927             0.362312
 s    3 1.00
            7.868272            -0.119332
            1.881288            -0.160854
            0.544249             1.143456
 s    1 1.00
            0.168714             1.000000
 p    3 1.00
            7.868272             0.068999
            1.881288             0.316424
            0.544249             0.744308
 p    1 1.00
            0.168714             1.000000
 d    1 1.00
            0.800000             1.000000

   35 0
 s    6 1.00
         3047.524900             0.001835
          457.369510             0.014037
          103.948690             0.068843
           29.210155             0.232184
            9.286663             0.467941
            3.163927             0.362312
 s    3 1.00
            7.868272            -0.119332
            1.881288            -0.160854
            0.544249             1.143456
 s    1 1.00
            0.168714             1.000000
 p    3 1.00
            7.868272             0.068999
            1.881288             0.316424
            0.544249             0.744308
 p    1 1.00
            0.168714             1.000000
 d    1 1.00
            0.800000             1.000000

   36 0
 s    6 1.00
         3047.524900             0.001835
          457.369510             0.014037
          103.948690             0.068843
           29.210155             0.232184
            9.286663             0.467941
            3.163927             0.362312
 s    3 1.00
            7.868272            -0.119332
            1.881288            -0.160854
            0.544249             1.143456
 s    1 1.00
            0.168714             1.000000
 p    3 1.00
            7.868272             0.068999
            1.881288             0.316424
            0.544249             0.744308
 p    1 1.00
            0.168714             1.000000
 d    1 1.00
            0.800000             1.000000

   37 0
 s    6 1.00
         3047.524900             0.001835
          457.369510             0.014037
          103.948690             0.068843
           29.210155             0.232184
            9.286663             0.467941
            3.163927             0.362312
 s    3 1.00
            7.868272            -0.119332
            1.881288            -0.160854
            0.544249             1.143456
 s    1 1.00
            0.168714             1.000000
 p    3 1.00
            7.868272             0.068999
            1.881288             0.316424
            0.544249             0.744308
 p    1 1.00
            0.168714             1.000000
 d    1 1.00
            0.800000             1.000000

   38 0
 s    3 1.00
           18.731137             0.033495
            2.825394             0.234727
            0.640122             0.813757
 s    1 1.00
            0.161278             1.000000

   39 0
 s    6 1.00
         3047.524900             0.001835
          457.369510             0.014037
          103.948690             0.068843
           29.210155             0.232184
            9.286663             0.467941
            3.163927             0.362312
 s    3 1.00
            7.868272            -0.119332
            1.881288            -0.160854
            0.544249             1.143456
 s    1 1.00
            0.168714             1.000000
 p    3 1.00
            7.868272             0.068999
            1.881288             0.316424
            0.544249             0.744308
 p    1 1.00
            0.168714             1.000000
 d    1 1.00
            0.800000             1.000000

   40 0
 s    3 1.00
           18.731137             0.033495
            2.825394             0.234727
            0.640122             0.813757
 s    1 1.00
            0.161278             1.000000

   41 0
 s    6 1.00
         3047.524900             0.001835
          457.369510             0.014037
          103.948690             0.068843
           29.210155             0.232184
            9.286663             0.467941
            3.163927             0.362312
 s    3 1.00
            7.868272            -0.119332
            1.881288            -0.160854
            0.544249             1.143456
 s    1 1.00
            0.168714             1.000000
 p    3 1.00
            7.868272             0.068999
            1.881288             0.316424
            0.544249             0.744308
 p    1 1.00
            0.168714             1.000000
 d    1 1.00
            0.800000             1.000000

   42 0
 s    6 1.00
         5484.671700             0.001831
          825.234950             0.013950
          188.046960             0.068445
           52.964500             0.232714
           16.897570             0.470193
            5.799635             0.358521
 s    3 1.00
           15.539616            -0.110778
            3.599934            -0.148026
            1.013762             1.130767
 s    1 1.00
            0.270006             1.000000
 p    3 1.00
           15.539616             0.070874
            3.599934             0.339753
            1.013762             0.727159
 p    1 1.00
            0.270006             1.000000
 d    1 1.00
            0.800000             1.000000

   43 0
 s    3 1.00
           18.731137             0.033495
            2.825394             0.234727
            0.640122             0.813757
 s    1 1.00
            0.161278             1.000000

   44 0
 s    3 1.00
           18.731137             0.033495
            2.825394             0.234727
            0.640122             0.813757
 s    1 1.00
            0.161278             1.000000

[MO]
 Ene=   -46.3561
 Spin= Alpha
 Occup= 2.0
    1   -0.00002
    2   -0.00001
    3   -0.00001
    4   -0.00007
    5    0.00017
    6   -0.00001
    7   -0.00001
    8    0.00000
    9   -0.00000
   10   -0.00004
   11    0.00016
   12   -0.00002
   13    0.00003
   14    0.00002
   15   -0.00002
   16   -0.00001
   17   -0.00001
   18   -0.00003
   19   -0.00005
   20   -0.00003
   21   -0.00002
   22   -0.00001
   23   -0.00007
   24    0.00016
   25   -0.00001
   26   -0.00001
   27   -0.00001
   28    0.00005
   29   -0.00008
   30   -0.00017
   31   -0.00002
   32    0.00003
   33    0.00002
   34   -0.00002
   35   -0.00000
   36    0.00000
   37   -0.00000
   38    0.00002
   39    0.00061
   40   -0.00001
   41    0.00004
   42    0.00002
   43    0.00002
   44    0.00028
   45   -0.00017
   46   -0.00002
   47   -0.00004
   48   -0.00004
   49   -0.00000
   50    0.00000
   51    0.00003
   52   -0.00003
   53   -0.00005
   54    0.00003
   55    0.00004
   56   -0.00003
   57    0.00002
   58    0.00004
   59   -0.00008
   60    0.00031
   61   -0.00023
   62   -0.00099
   63    0.00004
   64   -0.00000
   65    0.00023
   66    0.00000
   67   -0.00008
   68    0.00005
   69   -0.00003
   70   -0.00013
   71    0.00080
   72    0.00001
   73   -0.00000
   74   -0.00002
   75    0.00000
   76    0.00007
   77   -0.00027
   78   -0.00005
   79   -0.00003
   80    0.00000
   81   -0.00000
   82   -0.00001
   83    0.00000
   84   -0.00002
   85   -0.00011
   86    0.00001
   87    0.00002
   88   -0.00018
   89   -0.00002
   90   -0.00002
   91    0.00009
   92    0.00004
   93   -0.00027
   94   -0.00045
   95   -0.00001
   96    0.00017
   97   -0.00002
   98   -0.00000
   99    0.00001
  100   -0.00003
  101    0.00003
  102    0.00004
  103   -0.00008
  104   -0.00001
  105    0.00005
  106    0.00007
  107   -0.00000
  108   -0.00003
  109    0.00111
  110    0.00002
  111   -0.00000
  112    0.00026
  113    0.00002
  114    0.00000
  115    0.00001
  116   -0.00010
  117   -0.00021
  118    0.00216
  119   -0.00003
  120    0.00024
  121   -0.00003
  122    0.00050
  123   -0.00356
  124    0.00045
  125   -0.00025
  126   -0.00029
  127   -0.00025
  128    0.00001
  129    0.00000
  130    0.00001
  131   -0.00001
  132   -0.00006
  133    0.00029
  134    0.00001
  135   -0.00000
  136   -0.00002
  137    0.00004
  138   -0.00013
  139   -0.00004
  140   -0.00003
  141   -0.00002
  142    0.00001
  143   -0.00000
  144   -0.00001
  145   -0.00000
  146   -0.00003
  147   -0.00003
  148   -0.00000
  149   -0.00008
  150   -0.00000
  151    0.00001
  152    0.00065
  153   -0.00001
  154    0.00004
  155   -0.00004
  156   -0.00002
  157    0.00029
  158    0.00018
  159   -0.00002
  160   -0.00005
  161   -0.00003
  162    0.00000
  163    0.00000
  164   -0.00003
  165   -0.00006
  166   -0.00014
  167    0.00118
  168   -0.00007
  169   -0.00000
  170    0.00011
  171    0.00055
  172   -0.00006
  173   -0.00165
  174   -0.00014
  175   -0.00011
  176   -0.00019
  177   -0.00000
  178   -0.00001
  179    0.00001
  180   -0.00002
  181   -0.00005
  182    0.00001
  183    0.00000
  184    0.00050
  185   -0.00002
  186    0.00005
  187    0.00004
  188   -0.00011
  189    0.00002
  190   -0.00035
  191    0.00001
  192    0.00018
  193   -0.00001
  194   -0.00004
  195    0.00001
  196   -0.00002
  197   -0.99717
  198   -0.01246
  199    0.01025
  200    0.00167
  201   -0.00006
  202   -0.00001
  203   -0.00001
  204    0.00069
  205    0.00054
  206    0.00022
  207   -0.00010
  208   -0.00008
  209   -0.00005
  210   -0.00485
  211   -0.01052
  212   -0.00771
  213    0.00001
  214    0.00033
  215    0.00024
  216    0.00002
  217    0.00002
  218   -0.00022
  219    0.00000
  220   -0.00004
  221   -0.00008
  222   -0.00006
  223   -0.00013
  224    0.00040
  225    0.00000
  226    0.00018
  227   -0.00002
  228    0.00001
  229   -0.00001
  230   -0.00002
  231   -0.00006
  232   -0.00014
  233    0.00124
  234   -0.00004
  235   -0.00002
  236   -0.00012