[Molden Format]
[Title]
Written by TeraChem
[Atoms] Angs
H   1   1     10.02391   23.16673   28.46685
C   2   6     10.26396   22.26514   27.91726
H   3   1     10.08016   21.51138   30.50987
H   4   1     10.29691   22.86263   25.80598
C   5   6     10.40866   22.11463   26.57969
H   6   1     10.77290   19.94132   32.57562
C   7   6     10.33096   20.67228   29.86551
C   8   6     10.48193   20.96145   28.51811
C   9   6     10.18379   19.24245   31.97541
H   10   1      9.13008   19.45164   32.19701
C   11   6     10.44672   19.42334   30.49173
C   12   6     10.71122   20.71471   26.33804
N   13   7     10.79323   20.05916   27.53849
C   14   6     10.54327   17.77351   32.22343
H   15   1     11.44627   17.67253   32.83788
H   16   1     10.73335   20.80581   24.23571
N   17   7     10.75137   18.27167   29.90089
C   18   6     10.84146   20.13804   25.08595
H   19   1      9.75217   17.21984   32.73907
C   20   6     10.78236   17.24257   30.82788
Mg   21   12     11.24031   18.06851   27.79121
C   22   6     11.04263   18.78270   24.78729
C   23   6     11.00019   15.94201   30.48256
N   24   7     11.11897   17.79641   25.67668
C   25   6     11.15658   18.26920   23.36778
H   26   1     10.20045   18.41060   22.86071
H   27   1     11.90372   18.82424   22.79481
C   28   6     11.06694   14.71530   31.37063
N   29   7     11.19030   16.07404   27.96835
C   30   6     11.17780   15.46809   29.15941
H   31   1     11.89819   14.73299   32.08579
H   32   1     10.15067   14.54776   31.95034
C   33   6     11.32727   16.58380   25.05039
C   34   6     11.50515   16.79181   23.56023
C   35   6     11.34673   15.07257   27.04209
C   36   6     11.33286   14.07470   29.05234
C   37   6     11.28386   13.50791   30.40571
C   38   6     11.41093   15.36114   25.65332
H   39   1     10.86666   16.11805   22.98396
H   40   1     12.54482   16.58167   23.28044
C   41   6     11.44021   13.80902   27.68797
O   42   8     11.38133   12.36308   30.78196
H   43   1     11.55516   14.50939   24.99285
H   44   1     11.54463   12.85012   27.19731
[GTO]
    1 0
 s    3 1.00
           18.731137             0.033495
            2.825394             0.234727
            0.640122             0.813757
 s    1 1.00
            0.161278             1.000000

    2 0
 s    6 1.00
         3047.524900             0.001835
          457.369510             0.014037
          103.948690             0.068843
           29.210155             0.232184
            9.286663             0.467941
            3.163927             0.362312
 s    3 1.00
            7.868272            -0.119332
            1.881288            -0.160854
            0.544249             1.143456
 s    1 1.00
            0.168714             1.000000
 p    3 1.00
            7.868272             0.068999
            1.881288             0.316424
            0.544249             0.744308
 p    1 1.00
            0.168714             1.000000
 d    1 1.00
            0.800000             1.000000

    3 0
 s    3 1.00
           18.731137             0.033495
            2.825394             0.234727
            0.640122             0.813757
 s    1 1.00
            0.161278             1.000000

    4 0
 s    3 1.00
           18.731137             0.033495
            2.825394             0.234727
            0.640122             0.813757
 s    1 1.00
            0.161278             1.000000

    5 0
 s    6 1.00
         3047.524900             0.001835
          457.369510             0.014037
          103.948690             0.068843
           29.210155             0.232184
            9.286663             0.467941
            3.163927             0.362312
 s    3 1.00
            7.868272            -0.119332
            1.881288            -0.160854
            0.544249             1.143456
 s    1 1.00
            0.168714             1.000000
 p    3 1.00
            7.868272             0.068999
            1.881288             0.316424
            0.544249             0.744308
 p    1 1.00
            0.168714             1.000000
 d    1 1.00
            0.800000             1.000000

    6 0
 s    3 1.00
           18.731137             0.033495
            2.825394             0.234727
            0.640122             0.813757
 s    1 1.00
            0.161278             1.000000

    7 0
 s    6 1.00
         3047.524900             0.001835
          457.369510             0.014037
          103.948690             0.068843
           29.210155             0.232184
            9.286663             0.467941
            3.163927             0.362312
 s    3 1.00
            7.868272            -0.119332
            1.881288            -0.160854
            0.544249             1.143456
 s    1 1.00
            0.168714             1.000000
 p    3 1.00
            7.868272             0.068999
            1.881288             0.316424
            0.544249             0.744308
 p    1 1.00
            0.168714             1.000000
 d    1 1.00
            0.800000             1.000000

    8 0
 s    6 1.00
         3047.524900             0.001835
          457.369510             0.014037
          103.948690             0.068843
           29.210155             0.232184
            9.286663             0.467941
            3.163927             0.362312
 s    3 1.00
            7.868272            -0.119332
            1.881288            -0.160854
            0.544249             1.143456
 s    1 1.00
            0.168714             1.000000
 p    3 1.00
            7.868272             0.068999
            1.881288             0.316424
            0.544249             0.744308
 p    1 1.00
            0.168714             1.000000
 d    1 1.00
            0.800000             1.000000

    9 0
 s    6 1.00
         3047.524900             0.001835
          457.369510             0.014037
          103.948690             0.068843
           29.210155             0.232184
            9.286663             0.467941
            3.163927             0.362312
 s    3 1.00
            7.868272            -0.119332
            1.881288            -0.160854
            0.544249             1.143456
 s    1 1.00
            0.168714             1.000000
 p    3 1.00
            7.868272             0.068999
            1.881288             0.316424
            0.544249             0.744308
 p    1 1.00
            0.168714             1.000000
 d    1 1.00
            0.800000             1.000000

   10 0
 s    3 1.00
           18.731137             0.033495
            2.825394             0.234727
            0.640122             0.813757
 s    1 1.00
            0.161278             1.000000

   11 0
 s    6 1.00
         3047.524900             0.001835
          457.369510             0.014037
          103.948690             0.068843
           29.210155             0.232184
            9.286663             0.467941
            3.163927             0.362312
 s    3 1.00
            7.868272            -0.119332
            1.881288            -0.160854
            0.544249             1.143456
 s    1 1.00
            0.168714             1.000000
 p    3 1.00
            7.868272             0.068999
            1.881288             0.316424
            0.544249             0.744308
 p    1 1.00
            0.168714             1.000000
 d    1 1.00
            0.800000             1.000000

   12 0
 s    6 1.00
         3047.524900             0.001835
          457.369510             0.014037
          103.948690             0.068843
           29.210155             0.232184
            9.286663             0.467941
            3.163927             0.362312
 s    3 1.00
            7.868272            -0.119332
            1.881288            -0.160854
            0.544249             1.143456
 s    1 1.00
            0.168714             1.000000
 p    3 1.00
            7.868272             0.068999
            1.881288             0.316424
            0.544249             0.744308
 p    1 1.00
            0.168714             1.000000
 d    1 1.00
            0.800000             1.000000

   13 0
 s    6 1.00
         4173.511000             0.001835
          627.457900             0.013995
          142.902100             0.068587
           40.234330             0.232241
           12.820210             0.469070
            4.390437             0.360455
 s    3 1.00
           11.626358            -0.114961
            2.716280            -0.169118
            0.772218             1.145852
 s    1 1.00
            0.212031             1.000000
 p    3 1.00
           11.626358             0.067580
            2.716280             0.323907
            0.772218             0.740895
 p    1 1.00
            0.212031             1.000000
 d    1 1.00
            0.800000             1.000000

   14 0
 s    6 1.00
         3047.524900             0.001835
          457.369510             0.014037
          103.948690             0.068843
           29.210155             0.232184
            9.286663             0.467941
            3.163927             0.362312
 s    3 1.00
            7.868272            -0.119332
            1.881288            -0.160854
            0.544249             1.143456
 s    1 1.00
            0.168714             1.000000
 p    3 1.00
            7.868272             0.068999
            1.881288             0.316424
            0.544249             0.744308
 p    1 1.00
            0.168714             1.000000
 d    1 1.00
            0.800000             1.000000

   15 0
 s    3 1.00
           18.731137             0.033495
            2.825394             0.234727
            0.640122             0.813757
 s    1 1.00
            0.161278             1.000000

   16 0
 s    3 1.00
           18.731137             0.033495
            2.825394             0.234727
            0.640122             0.813757
 s    1 1.00
            0.161278             1.000000

   17 0
 s    6 1.00
         4173.511000             0.001835
          627.457900             0.013995
          142.902100             0.068587
           40.234330             0.232241
           12.820210             0.469070
            4.390437             0.360455
 s    3 1.00
           11.626358            -0.114961
            2.716280            -0.169118
            0.772218             1.145852
 s    1 1.00
            0.212031             1.000000
 p    3 1.00
           11.626358             0.067580
            2.716280             0.323907
            0.772218             0.740895
 p    1 1.00
            0.212031             1.000000
 d    1 1.00
            0.800000             1.000000

   18 0
 s    6 1.00
         3047.524900             0.001835
          457.369510             0.014037
          103.948690             0.068843
           29.210155             0.232184
            9.286663             0.467941
            3.163927             0.362312
 s    3 1.00
            7.868272            -0.119332
            1.881288            -0.160854
            0.544249             1.143456
 s    1 1.00
            0.168714             1.000000
 p    3 1.00
            7.868272             0.068999
            1.881288             0.316424
            0.544249             0.744308
 p    1 1.00
            0.168714             1.000000
 d    1 1.00
            0.800000             1.000000

   19 0
 s    3 1.00
           18.731137             0.033495
            2.825394             0.234727
            0.640122             0.813757
 s    1 1.00
            0.161278             1.000000

   20 0
 s    6 1.00
         3047.524900             0.001835
          457.369510             0.014037
          103.948690             0.068843
           29.210155             0.232184
            9.286663             0.467941
            3.163927             0.362312
 s    3 1.00
            7.868272            -0.119332
            1.881288            -0.160854
            0.544249             1.143456
 s    1 1.00
            0.168714             1.000000
 p    3 1.00
            7.868272             0.068999
            1.881288             0.316424
            0.544249             0.744308
 p    1 1.00
            0.168714             1.000000
 d    1 1.00
            0.800000             1.000000

   21 0
 s    6 1.00
        11722.800000             0.001978
         1759.930000             0.015114
          400.846000             0.073911
          112.807000             0.249191
           35.999700             0.487928
           12.182800             0.319662
 s    6 1.00
          189.180000            -0.003237
           45.211900            -0.041008
           14.356300            -0.112600
            5.138860             0.148633
            1.906520             0.616497
            0.705887             0.364829
 s    3 1.00
            0.929340            -0.212291
            0.269035            -0.107985
            0.117379             1.175845
 s    1 1.00
            0.042106             1.000000
 p    6 1.00
          189.180000             0.004928
           45.211900             0.034989
           14.356300             0.140725
            5.138860             0.333642
            1.906520             0.444940
            0.705887             0.269254
 p    3 1.00
            0.929340            -0.022419
            0.269035             0.192270
            0.117379             0.846181
 p    1 1.00
            0.042106             1.000000
 d    1 1.00
            0.175000             1.000000

   22 0
 s    6 1.00
         3047.524900             0.001835
          457.369510             0.014037
          103.948690             0.068843
           29.210155             0.232184
            9.286663             0.467941
            3.163927             0.362312
 s    3 1.00
            7.868272            -0.119332
            1.881288            -0.160854
            0.544249             1.143456
 s    1 1.00
            0.168714             1.000000
 p    3 1.00
            7.868272             0.068999
            1.881288             0.316424
            0.544249             0.744308
 p    1 1.00
            0.168714             1.000000
 d    1 1.00
            0.800000             1.000000

   23 0
 s    6 1.00
         3047.524900             0.001835
          457.369510             0.014037
          103.948690             0.068843
           29.210155             0.232184
            9.286663             0.467941
            3.163927             0.362312
 s    3 1.00
            7.868272            -0.119332
            1.881288            -0.160854
            0.544249             1.143456
 s    1 1.00
            0.168714             1.000000
 p    3 1.00
            7.868272             0.068999
            1.881288             0.316424
            0.544249             0.744308
 p    1 1.00
            0.168714             1.000000
 d    1 1.00
            0.800000             1.000000

   24 0
 s    6 1.00
         4173.511000             0.001835
          627.457900             0.013995
          142.902100             0.068587
           40.234330             0.232241
           12.820210             0.469070
            4.390437             0.360455
 s    3 1.00
           11.626358            -0.114961
            2.716280            -0.169118
            0.772218             1.145852
 s    1 1.00
            0.212031             1.000000
 p    3 1.00
           11.626358             0.067580
            2.716280             0.323907
            0.772218             0.740895
 p    1 1.00
            0.212031             1.000000
 d    1 1.00
            0.800000             1.000000

   25 0
 s    6 1.00
         3047.524900             0.001835
          457.369510             0.014037
          103.948690             0.068843
           29.210155             0.232184
            9.286663             0.467941
            3.163927             0.362312
 s    3 1.00
            7.868272            -0.119332
            1.881288            -0.160854
            0.544249             1.143456
 s    1 1.00
            0.168714             1.000000
 p    3 1.00
            7.868272             0.068999
            1.881288             0.316424
            0.544249             0.744308
 p    1 1.00
            0.168714             1.000000
 d    1 1.00
            0.800000             1.000000

   26 0
 s    3 1.00
           18.731137             0.033495
            2.825394             0.234727
            0.640122             0.813757
 s    1 1.00
            0.161278             1.000000

   27 0
 s    3 1.00
           18.731137             0.033495
            2.825394             0.234727
            0.640122             0.813757
 s    1 1.00
            0.161278             1.000000

   28 0
 s    6 1.00
         3047.524900             0.001835
          457.369510             0.014037
          103.948690             0.068843
           29.210155             0.232184
            9.286663             0.467941
            3.163927             0.362312
 s    3 1.00
            7.868272            -0.119332
            1.881288            -0.160854
            0.544249             1.143456
 s    1 1.00
            0.168714             1.000000
 p    3 1.00
            7.868272             0.068999
            1.881288             0.316424
            0.544249             0.744308
 p    1 1.00
            0.168714             1.000000
 d    1 1.00
            0.800000             1.000000

   29 0
 s    6 1.00
         4173.511000             0.001835
          627.457900             0.013995
          142.902100             0.068587
           40.234330             0.232241
           12.820210             0.469070
            4.390437             0.360455
 s    3 1.00
           11.626358            -0.114961
            2.716280            -0.169118
            0.772218             1.145852
 s    1 1.00
            0.212031             1.000000
 p    3 1.00
           11.626358             0.067580
            2.716280             0.323907
            0.772218             0.740895
 p    1 1.00
            0.212031             1.000000
 d    1 1.00
            0.800000             1.000000

   30 0
 s    6 1.00
         3047.524900             0.001835
          457.369510             0.014037
          103.948690             0.068843
           29.210155             0.232184
            9.286663             0.467941
            3.163927             0.362312
 s    3 1.00
            7.868272            -0.119332
            1.881288            -0.160854
            0.544249             1.143456
 s    1 1.00
            0.168714             1.000000
 p    3 1.00
            7.868272             0.068999
            1.881288             0.316424
            0.544249             0.744308
 p    1 1.00
            0.168714             1.000000
 d    1 1.00
            0.800000             1.000000

   31 0
 s    3 1.00
           18.731137             0.033495
            2.825394             0.234727
            0.640122             0.813757
 s    1 1.00
            0.161278             1.000000

   32 0
 s    3 1.00
           18.731137             0.033495
            2.825394             0.234727
            0.640122             0.813757
 s    1 1.00
            0.161278             1.000000

   33 0
 s    6 1.00
         3047.524900             0.001835
          457.369510             0.014037
          103.948690             0.068843
           29.210155             0.232184
            9.286663             0.467941
            3.163927             0.362312
 s    3 1.00
            7.868272            -0.119332
            1.881288            -0.160854
            0.544249             1.143456
 s    1 1.00
            0.168714             1.000000
 p    3 1.00
            7.868272             0.068999
            1.881288             0.316424
            0.544249             0.744308
 p    1 1.00
            0.168714             1.000000
 d    1 1.00
            0.800000             1.000000

   34 0
 s    6 1.00
         3047.524900             0.001835
          457.369510             0.014037
          103.948690             0.068843
           29.210155             0.232184
            9.286663             0.467941
            3.163927             0.362312
 s    3 1.00
            7.868272            -0.119332
            1.881288            -0.160854
            0.544249             1.143456
 s    1 1.00
            0.168714             1.000000
 p    3 1.00
            7.868272             0.068999
            1.881288             0.316424
            0.544249             0.744308
 p    1 1.00
            0.168714             1.000000
 d    1 1.00
            0.800000             1.000000

   35 0
 s    6 1.00
         3047.524900             0.001835
          457.369510             0.014037
          103.948690             0.068843
           29.210155             0.232184
            9.286663             0.467941
            3.163927             0.362312
 s    3 1.00
            7.868272            -0.119332
            1.881288            -0.160854
            0.544249             1.143456
 s    1 1.00
            0.168714             1.000000
 p    3 1.00
            7.868272             0.068999
            1.881288             0.316424
            0.544249             0.744308
 p    1 1.00
            0.168714             1.000000
 d    1 1.00
            0.800000             1.000000

   36 0
 s    6 1.00
         3047.524900             0.001835
          457.369510             0.014037
          103.948690             0.068843
           29.210155             0.232184
            9.286663             0.467941
            3.163927             0.362312
 s    3 1.00
            7.868272            -0.119332
            1.881288            -0.160854
            0.544249             1.143456
 s    1 1.00
            0.168714             1.000000
 p    3 1.00
            7.868272             0.068999
            1.881288             0.316424
            0.544249             0.744308
 p    1 1.00
            0.168714             1.000000
 d    1 1.00
            0.800000             1.000000

   37 0
 s    6 1.00
         3047.524900             0.001835
          457.369510             0.014037
          103.948690             0.068843
           29.210155             0.232184
            9.286663             0.467941
            3.163927             0.362312
 s    3 1.00
            7.868272            -0.119332
            1.881288            -0.160854
            0.544249             1.143456
 s    1 1.00
            0.168714             1.000000
 p    3 1.00
            7.868272             0.068999
            1.881288             0.316424
            0.544249             0.744308
 p    1 1.00
            0.168714             1.000000
 d    1 1.00
            0.800000             1.000000

   38 0
 s    6 1.00
         3047.524900             0.001835
          457.369510             0.014037
          103.948690             0.068843
           29.210155             0.232184
            9.286663             0.467941
            3.163927             0.362312
 s    3 1.00
            7.868272            -0.119332
            1.881288            -0.160854
            0.544249             1.143456
 s    1 1.00
            0.168714             1.000000
 p    3 1.00
            7.868272             0.068999
            1.881288             0.316424
            0.544249             0.744308
 p    1 1.00
            0.168714             1.000000
 d    1 1.00
            0.800000             1.000000

   39 0
 s    3 1.00
           18.731137             0.033495
            2.825394             0.234727
            0.640122             0.813757
 s    1 1.00
            0.161278             1.000000

   40 0
 s    3 1.00
           18.731137             0.033495
            2.825394             0.234727
            0.640122             0.813757
 s    1 1.00
            0.161278             1.000000

   41 0
 s    6 1.00
         3047.524900             0.001835
          457.369510             0.014037
          103.948690             0.068843
           29.210155             0.232184
            9.286663             0.467941
            3.163927             0.362312
 s    3 1.00
            7.868272            -0.119332
            1.881288            -0.160854
            0.544249             1.143456
 s    1 1.00
            0.168714             1.000000
 p    3 1.00
            7.868272             0.068999
            1.881288             0.316424
            0.544249             0.744308
 p    1 1.00
            0.168714             1.000000
 d    1 1.00
            0.800000             1.000000

   42 0
 s    6 1.00
         5484.671700             0.001831
          825.234950             0.013950
          188.046960             0.068445
           52.964500             0.232714
           16.897570             0.470193
            5.799635             0.358521
 s    3 1.00
           15.539616            -0.110778
            3.599934            -0.148026
            1.013762             1.130767
 s    1 1.00
            0.270006             1.000000
 p    3 1.00
           15.539616             0.070874
            3.599934             0.339753
            1.013762             0.727159
 p    1 1.00
            0.270006             1.000000
 d    1 1.00
            0.800000             1.000000

   43 0
 s    3 1.00
           18.731137             0.033495
            2.825394             0.234727
            0.640122             0.813757
 s    1 1.00
            0.161278             1.000000

   44 0
 s    3 1.00
           18.731137             0.033495
            2.825394             0.234727
            0.640122             0.813757
 s    1 1.00
            0.161278             1.000000

[MO]
 Ene=   -46.3597
 Spin= Alpha
 Occup= 2.0
    1    0.00002
    2   -0.00002
    3    0.00001
    4    0.00007
    5   -0.00024
    6   -0.00000
    7    0.00001
    8   -0.00001
    9   -0.00003
   10    0.00012
   11   -0.00011
   12    0.00002
   13   -0.00003
   14   -0.00002
   15    0.00002
   16    0.00000
   17    0.00001
   18    0.00004
   19    0.00012
   20    0.00002
   21   -0.00002
   22    0.00001
   23    0.00007
   24   -0.00031
   25   -0.00001
   26    0.00001
   27    0.00001
   28   -0.00005
   29    0.00017
   30    0.00008
   31    0.00002
   32   -0.00003
   33   -0.00002
   34    0.00002
   35    0.00000
   36    0.00000
   37    0.00003
   38    0.00006
   39   -0.00000
   40   -0.00005
   41   -0.00019
   42    0.00002
   43   -0.00002
   44   -0.00003
   45   -0.00000
   46   -0.00035
   47   -0.00010
   48   -0.00000
   49    0.00004
   50    0.00005
   51    0.00000
   52    0.00000
   53   -0.00003
   54   -0.00003
   55   -0.00003
   56   -0.00008
   57    0.00001
   58   -0.00004
   59    0.00008
   60   -0.00007
   61    0.00040
   62    0.00061
   63   -0.00002
   64   -0.00000
   65   -0.00025
   66   -0.00001
   67    0.00003
   68   -0.00005
   69    0.00003
   70    0.00013
   71   -0.00086
   72   -0.00001
   73    0.00000
   74    0.00002
   75   -0.00005
   76   -0.00006
   77    0.00028
   78    0.00005
   79    0.00003
   80   -0.00000
   81    0.00000
   82    0.00002
   83   -0.00000
   84    0.00002
   85    0.00009
   86   -0.00002
   87   -0.00003
   88    0.00004
   89    0.00002
   90    0.00004
   91   -0.00008
   92   -0.00009
   93    0.00031
   94    0.00059
   95   -0.00000
   96   -0.00017
   97    0.00001
   98    0.00002
   99   -0.00002
  100    0.00003
  101   -0.00003
  102   -0.00003
  103   -0.00006
  104    0.00003
  105   -0.00006
  106   -0.00007
  107    0.00005
  108    0.00034
  109   -0.00072
  110   -0.00002
  111   -0.00000
  112   -0.00025
  113   -0.00001
  114    0.00003
  115   -0.00002
  116    0.00008
  117    0.00015
  118   -0.00182
  119    0.00009
  120   -0.00019
  121    0.00003
  122   -0.00089
  123    0.00283
  124   -0.00044
  125    0.00019
  126    0.00031
  127    0.00022
  128    0.00000
  129   -0.00000
  130   -0.00001
  131    0.00001
  132    0.00005
  133   -0.00015
  134   -0.00001
  135    0.00000
  136    0.00001
  137   -0.00005
  138    0.00010
  139   -0.00001
  140    0.00003
  141    0.00002
  142   -0.00000
  143    0.00000
  144    0.00001
  145    0.00000
  146    0.00000
  147    0.00008
  148    0.00003
  149    0.00011
  150    0.00005
  151    0.00012
  152   -0.00099
  153    0.00006
  154    0.00000
  155   -0.00010
  156   -0.00055
  157    0.00022
  158    0.00158
  159    0.00012
  160    0.00010
  161    0.00016
  162    0.00000
  163    0.00001
  164    0.00002
  165   -0.00000
  166   -0.00006
  167   -0.00010
  168    0.00002
  169   -0.00002
  170    0.00004
  171   -0.00004
  172   -0.00038
  173    0.00013
  174   -0.00000
  175    0.00005
  176    0.00004
  177   -0.00000
  178   -0.00001
  179    0.00003
  180    0.00001
  181    0.00004
  182   -0.00002
  183   -0.00001
  184   -0.00039
  185    0.00002
  186   -0.00003
  187   -0.00004
  188    0.00010
  189   -0.00009
  190    0.00020
  191   -0.00001
  192   -0.00016
  193    0.00001
  194    0.00003
  195   -0.00001
  196    0.00001
  197    0.99717
  198    0.01237
  199   -0.01070
  200   -0.00169
  201    0.00008
  202    0.00002
  203    0.00001
  204   -0.00083
  205   -0.00047
  206   -0.00020
  207    0.00012
  208    0.00008
  209    0.00005
  210    0.00507
  211    0.00964
  212    0.00772
  213   -0.00052
  214   -0.00019
  215   -0.00021
  216   -0.00002
  217   -0.00002
  218    0.00001
  219    0.00000
  220    0.00006
  221    0.00007
  222    0.00012
  223    0.00008
  224   -0.00060
  225   -0.00000
  226   -0.00018
  227    0.00001
  228    0.00000
  229    0.00000
  230    0.00002
  231   -0.00001
  232   -0.00010
  233    0.00023
  234    0.00003
  235    0.00002
  236   -0.00003