[Molden Format]
[Title]
Written by TeraChem
[Atoms] Angs
H   1   1      1.60035   17.95078   32.18950
H   2   1      1.06485   20.27972   32.04824
H   3   1     -0.13585   17.67422   32.29266
C   4   6      0.64403   18.13772   31.68287
C   5   6      0.42419   19.63355   31.44144
H   6   1     -0.61362   19.93147   31.63700
H   7   1      1.55857   15.17060   31.62075
H   8   1     -0.13011   14.80040   31.29769
C   9   6      0.81868   15.06162   30.81918
C   10   6      0.68569   17.58085   30.27931
C   11   6      0.70208   19.78816   29.96089
H   12   1      0.63875   21.90889   29.99985
C   13   6      0.71284   16.27304   29.92300
C   14   6      0.75495   21.04922   29.34589
O   15   8      1.53540   12.79029   30.28628
N   16   7      0.80727   18.61252   29.35446
C   17   6      1.23125   13.89408   29.88058
C   18   6      0.85865   15.77994   28.59514
C   19   6      0.85868   21.30982   27.98961
H   20   1      0.64433   23.55974   27.94199
C   21   6      1.21123   14.43168   28.52109
C   22   6      0.76443   22.63653   27.38835
Mg   23   12      1.22813   18.37949   27.25120
N   24   7      1.01337   20.38182   27.00793
N   25   7      0.83913   16.37300   27.37544
C   26   6      1.48501   14.16951   27.16904
C   27   6      0.83013   22.46694   26.05018
C   28   6      1.28899   15.38508   26.49385
C   29   6      0.98239   21.03713   25.80783
H   30   1      1.80768   13.24230   26.71550
H   31   1      0.77652   23.22240   25.27583
N   32   7      1.30578   18.11003   25.14180
C   33   6      1.52834   15.67304   25.11403
C   34   6      1.07404   20.45963   24.56101
C   35   6      1.47992   16.88866   24.50382
C   36   6      1.23970   19.09187   24.26026
H   37   1      1.73008   14.81338   24.47995
H   38   1      1.03139   21.13367   23.70985
C   39   6      1.56273   17.09163   23.00686
C   40   6      1.36067   18.59850   22.83876
H   41   1      0.79553   16.50760   22.49543
H   42   1      2.20331   19.08919   22.34084
H   43   1      2.53354   16.76530   22.63241
H   44   1      0.45374   18.84881   22.27663
[GTO]
    1 0
 s    3 1.00
           18.731137             0.033495
            2.825394             0.234727
            0.640122             0.813757
 s    1 1.00
            0.161278             1.000000

    2 0
 s    3 1.00
           18.731137             0.033495
            2.825394             0.234727
            0.640122             0.813757
 s    1 1.00
            0.161278             1.000000

    3 0
 s    3 1.00
           18.731137             0.033495
            2.825394             0.234727
            0.640122             0.813757
 s    1 1.00
            0.161278             1.000000

    4 0
 s    6 1.00
         3047.524900             0.001835
          457.369510             0.014037
          103.948690             0.068843
           29.210155             0.232184
            9.286663             0.467941
            3.163927             0.362312
 s    3 1.00
            7.868272            -0.119332
            1.881288            -0.160854
            0.544249             1.143456
 s    1 1.00
            0.168714             1.000000
 p    3 1.00
            7.868272             0.068999
            1.881288             0.316424
            0.544249             0.744308
 p    1 1.00
            0.168714             1.000000
 d    1 1.00
            0.800000             1.000000

    5 0
 s    6 1.00
         3047.524900             0.001835
          457.369510             0.014037
          103.948690             0.068843
           29.210155             0.232184
            9.286663             0.467941
            3.163927             0.362312
 s    3 1.00
            7.868272            -0.119332
            1.881288            -0.160854
            0.544249             1.143456
 s    1 1.00
            0.168714             1.000000
 p    3 1.00
            7.868272             0.068999
            1.881288             0.316424
            0.544249             0.744308
 p    1 1.00
            0.168714             1.000000
 d    1 1.00
            0.800000             1.000000

    6 0
 s    3 1.00
           18.731137             0.033495
            2.825394             0.234727
            0.640122             0.813757
 s    1 1.00
            0.161278             1.000000

    7 0
 s    3 1.00
           18.731137             0.033495
            2.825394             0.234727
            0.640122             0.813757
 s    1 1.00
            0.161278             1.000000

    8 0
 s    3 1.00
           18.731137             0.033495
            2.825394             0.234727
            0.640122             0.813757
 s    1 1.00
            0.161278             1.000000

    9 0
 s    6 1.00
         3047.524900             0.001835
          457.369510             0.014037
          103.948690             0.068843
           29.210155             0.232184
            9.286663             0.467941
            3.163927             0.362312
 s    3 1.00
            7.868272            -0.119332
            1.881288            -0.160854
            0.544249             1.143456
 s    1 1.00
            0.168714             1.000000
 p    3 1.00
            7.868272             0.068999
            1.881288             0.316424
            0.544249             0.744308
 p    1 1.00
            0.168714             1.000000
 d    1 1.00
            0.800000             1.000000

   10 0
 s    6 1.00
         3047.524900             0.001835
          457.369510             0.014037
          103.948690             0.068843
           29.210155             0.232184
            9.286663             0.467941
            3.163927             0.362312
 s    3 1.00
            7.868272            -0.119332
            1.881288            -0.160854
            0.544249             1.143456
 s    1 1.00
            0.168714             1.000000
 p    3 1.00
            7.868272             0.068999
            1.881288             0.316424
            0.544249             0.744308
 p    1 1.00
            0.168714             1.000000
 d    1 1.00
            0.800000             1.000000

   11 0
 s    6 1.00
         3047.524900             0.001835
          457.369510             0.014037
          103.948690             0.068843
           29.210155             0.232184
            9.286663             0.467941
            3.163927             0.362312
 s    3 1.00
            7.868272            -0.119332
            1.881288            -0.160854
            0.544249             1.143456
 s    1 1.00
            0.168714             1.000000
 p    3 1.00
            7.868272             0.068999
            1.881288             0.316424
            0.544249             0.744308
 p    1 1.00
            0.168714             1.000000
 d    1 1.00
            0.800000             1.000000

   12 0
 s    3 1.00
           18.731137             0.033495
            2.825394             0.234727
            0.640122             0.813757
 s    1 1.00
            0.161278             1.000000

   13 0
 s    6 1.00
         3047.524900             0.001835
          457.369510             0.014037
          103.948690             0.068843
           29.210155             0.232184
            9.286663             0.467941
            3.163927             0.362312
 s    3 1.00
            7.868272            -0.119332
            1.881288            -0.160854
            0.544249             1.143456
 s    1 1.00
            0.168714             1.000000
 p    3 1.00
            7.868272             0.068999
            1.881288             0.316424
            0.544249             0.744308
 p    1 1.00
            0.168714             1.000000
 d    1 1.00
            0.800000             1.000000

   14 0
 s    6 1.00
         3047.524900             0.001835
          457.369510             0.014037
          103.948690             0.068843
           29.210155             0.232184
            9.286663             0.467941
            3.163927             0.362312
 s    3 1.00
            7.868272            -0.119332
            1.881288            -0.160854
            0.544249             1.143456
 s    1 1.00
            0.168714             1.000000
 p    3 1.00
            7.868272             0.068999
            1.881288             0.316424
            0.544249             0.744308
 p    1 1.00
            0.168714             1.000000
 d    1 1.00
            0.800000             1.000000

   15 0
 s    6 1.00
         5484.671700             0.001831
          825.234950             0.013950
          188.046960             0.068445
           52.964500             0.232714
           16.897570             0.470193
            5.799635             0.358521
 s    3 1.00
           15.539616            -0.110778
            3.599934            -0.148026
            1.013762             1.130767
 s    1 1.00
            0.270006             1.000000
 p    3 1.00
           15.539616             0.070874
            3.599934             0.339753
            1.013762             0.727159
 p    1 1.00
            0.270006             1.000000
 d    1 1.00
            0.800000             1.000000

   16 0
 s    6 1.00
         4173.511000             0.001835
          627.457900             0.013995
          142.902100             0.068587
           40.234330             0.232241
           12.820210             0.469070
            4.390437             0.360455
 s    3 1.00
           11.626358            -0.114961
            2.716280            -0.169118
            0.772218             1.145852
 s    1 1.00
            0.212031             1.000000
 p    3 1.00
           11.626358             0.067580
            2.716280             0.323907
            0.772218             0.740895
 p    1 1.00
            0.212031             1.000000
 d    1 1.00
            0.800000             1.000000

   17 0
 s    6 1.00
         3047.524900             0.001835
          457.369510             0.014037
          103.948690             0.068843
           29.210155             0.232184
            9.286663             0.467941
            3.163927             0.362312
 s    3 1.00
            7.868272            -0.119332
            1.881288            -0.160854
            0.544249             1.143456
 s    1 1.00
            0.168714             1.000000
 p    3 1.00
            7.868272             0.068999
            1.881288             0.316424
            0.544249             0.744308
 p    1 1.00
            0.168714             1.000000
 d    1 1.00
            0.800000             1.000000

   18 0
 s    6 1.00
         3047.524900             0.001835
          457.369510             0.014037
          103.948690             0.068843
           29.210155             0.232184
            9.286663             0.467941
            3.163927             0.362312
 s    3 1.00
            7.868272            -0.119332
            1.881288            -0.160854
            0.544249             1.143456
 s    1 1.00
            0.168714             1.000000
 p    3 1.00
            7.868272             0.068999
            1.881288             0.316424
            0.544249             0.744308
 p    1 1.00
            0.168714             1.000000
 d    1 1.00
            0.800000             1.000000

   19 0
 s    6 1.00
         3047.524900             0.001835
          457.369510             0.014037
          103.948690             0.068843
           29.210155             0.232184
            9.286663             0.467941
            3.163927             0.362312
 s    3 1.00
            7.868272            -0.119332
            1.881288            -0.160854
            0.544249             1.143456
 s    1 1.00
            0.168714             1.000000
 p    3 1.00
            7.868272             0.068999
            1.881288             0.316424
            0.544249             0.744308
 p    1 1.00
            0.168714             1.000000
 d    1 1.00
            0.800000             1.000000

   20 0
 s    3 1.00
           18.731137             0.033495
            2.825394             0.234727
            0.640122             0.813757
 s    1 1.00
            0.161278             1.000000

   21 0
 s    6 1.00
         3047.524900             0.001835
          457.369510             0.014037
          103.948690             0.068843
           29.210155             0.232184
            9.286663             0.467941
            3.163927             0.362312
 s    3 1.00
            7.868272            -0.119332
            1.881288            -0.160854
            0.544249             1.143456
 s    1 1.00
            0.168714             1.000000
 p    3 1.00
            7.868272             0.068999
            1.881288             0.316424
            0.544249             0.744308
 p    1 1.00
            0.168714             1.000000
 d    1 1.00
            0.800000             1.000000

   22 0
 s    6 1.00
         3047.524900             0.001835
          457.369510             0.014037
          103.948690             0.068843
           29.210155             0.232184
            9.286663             0.467941
            3.163927             0.362312
 s    3 1.00
            7.868272            -0.119332
            1.881288            -0.160854
            0.544249             1.143456
 s    1 1.00
            0.168714             1.000000
 p    3 1.00
            7.868272             0.068999
            1.881288             0.316424
            0.544249             0.744308
 p    1 1.00
            0.168714             1.000000
 d    1 1.00
            0.800000             1.000000

   23 0
 s    6 1.00
        11722.800000             0.001978
         1759.930000             0.015114
          400.846000             0.073911
          112.807000             0.249191
           35.999700             0.487928
           12.182800             0.319662
 s    6 1.00
          189.180000            -0.003237
           45.211900            -0.041008
           14.356300            -0.112600
            5.138860             0.148633
            1.906520             0.616497
            0.705887             0.364829
 s    3 1.00
            0.929340            -0.212291
            0.269035            -0.107985
            0.117379             1.175845
 s    1 1.00
            0.042106             1.000000
 p    6 1.00
          189.180000             0.004928
           45.211900             0.034989
           14.356300             0.140725
            5.138860             0.333642
            1.906520             0.444940
            0.705887             0.269254
 p    3 1.00
            0.929340            -0.022419
            0.269035             0.192270
            0.117379             0.846181
 p    1 1.00
            0.042106             1.000000
 d    1 1.00
            0.175000             1.000000

   24 0
 s    6 1.00
         4173.511000             0.001835
          627.457900             0.013995
          142.902100             0.068587
           40.234330             0.232241
           12.820210             0.469070
            4.390437             0.360455
 s    3 1.00
           11.626358            -0.114961
            2.716280            -0.169118
            0.772218             1.145852
 s    1 1.00
            0.212031             1.000000
 p    3 1.00
           11.626358             0.067580
            2.716280             0.323907
            0.772218             0.740895
 p    1 1.00
            0.212031             1.000000
 d    1 1.00
            0.800000             1.000000

   25 0
 s    6 1.00
         4173.511000             0.001835
          627.457900             0.013995
          142.902100             0.068587
           40.234330             0.232241
           12.820210             0.469070
            4.390437             0.360455
 s    3 1.00
           11.626358            -0.114961
            2.716280            -0.169118
            0.772218             1.145852
 s    1 1.00
            0.212031             1.000000
 p    3 1.00
           11.626358             0.067580
            2.716280             0.323907
            0.772218             0.740895
 p    1 1.00
            0.212031             1.000000
 d    1 1.00
            0.800000             1.000000

   26 0
 s    6 1.00
         3047.524900             0.001835
          457.369510             0.014037
          103.948690             0.068843
           29.210155             0.232184
            9.286663             0.467941
            3.163927             0.362312
 s    3 1.00
            7.868272            -0.119332
            1.881288            -0.160854
            0.544249             1.143456
 s    1 1.00
            0.168714             1.000000
 p    3 1.00
            7.868272             0.068999
            1.881288             0.316424
            0.544249             0.744308
 p    1 1.00
            0.168714             1.000000
 d    1 1.00
            0.800000             1.000000

   27 0
 s    6 1.00
         3047.524900             0.001835
          457.369510             0.014037
          103.948690             0.068843
           29.210155             0.232184
            9.286663             0.467941
            3.163927             0.362312
 s    3 1.00
            7.868272            -0.119332
            1.881288            -0.160854
            0.544249             1.143456
 s    1 1.00
            0.168714             1.000000
 p    3 1.00
            7.868272             0.068999
            1.881288             0.316424
            0.544249             0.744308
 p    1 1.00
            0.168714             1.000000
 d    1 1.00
            0.800000             1.000000

   28 0
 s    6 1.00
         3047.524900             0.001835
          457.369510             0.014037
          103.948690             0.068843
           29.210155             0.232184
            9.286663             0.467941
            3.163927             0.362312
 s    3 1.00
            7.868272            -0.119332
            1.881288            -0.160854
            0.544249             1.143456
 s    1 1.00
            0.168714             1.000000
 p    3 1.00
            7.868272             0.068999
            1.881288             0.316424
            0.544249             0.744308
 p    1 1.00
            0.168714             1.000000
 d    1 1.00
            0.800000             1.000000

   29 0
 s    6 1.00
         3047.524900             0.001835
          457.369510             0.014037
          103.948690             0.068843
           29.210155             0.232184
            9.286663             0.467941
            3.163927             0.362312
 s    3 1.00
            7.868272            -0.119332
            1.881288            -0.160854
            0.544249             1.143456
 s    1 1.00
            0.168714             1.000000
 p    3 1.00
            7.868272             0.068999
            1.881288             0.316424
            0.544249             0.744308
 p    1 1.00
            0.168714             1.000000
 d    1 1.00
            0.800000             1.000000

   30 0
 s    3 1.00
           18.731137             0.033495
            2.825394             0.234727
            0.640122             0.813757
 s    1 1.00
            0.161278             1.000000

   31 0
 s    3 1.00
           18.731137             0.033495
            2.825394             0.234727
            0.640122             0.813757
 s    1 1.00
            0.161278             1.000000

   32 0
 s    6 1.00
         4173.511000             0.001835
          627.457900             0.013995
          142.902100             0.068587
           40.234330             0.232241
           12.820210             0.469070
            4.390437             0.360455
 s    3 1.00
           11.626358            -0.114961
            2.716280            -0.169118
            0.772218             1.145852
 s    1 1.00
            0.212031             1.000000
 p    3 1.00
           11.626358             0.067580
            2.716280             0.323907
            0.772218             0.740895
 p    1 1.00
            0.212031             1.000000
 d    1 1.00
            0.800000             1.000000

   33 0
 s    6 1.00
         3047.524900             0.001835
          457.369510             0.014037
          103.948690             0.068843
           29.210155             0.232184
            9.286663             0.467941
            3.163927             0.362312
 s    3 1.00
            7.868272            -0.119332
            1.881288            -0.160854
            0.544249             1.143456
 s    1 1.00
            0.168714             1.000000
 p    3 1.00
            7.868272             0.068999
            1.881288             0.316424
            0.544249             0.744308
 p    1 1.00
            0.168714             1.000000
 d    1 1.00
            0.800000             1.000000

   34 0
 s    6 1.00
         3047.524900             0.001835
          457.369510             0.014037
          103.948690             0.068843
           29.210155             0.232184
            9.286663             0.467941
            3.163927             0.362312
 s    3 1.00
            7.868272            -0.119332
            1.881288            -0.160854
            0.544249             1.143456
 s    1 1.00
            0.168714             1.000000
 p    3 1.00
            7.868272             0.068999
            1.881288             0.316424
            0.544249             0.744308
 p    1 1.00
            0.168714             1.000000
 d    1 1.00
            0.800000             1.000000

   35 0
 s    6 1.00
         3047.524900             0.001835
          457.369510             0.014037
          103.948690             0.068843
           29.210155             0.232184
            9.286663             0.467941
            3.163927             0.362312
 s    3 1.00
            7.868272            -0.119332
            1.881288            -0.160854
            0.544249             1.143456
 s    1 1.00
            0.168714             1.000000
 p    3 1.00
            7.868272             0.068999
            1.881288             0.316424
            0.544249             0.744308
 p    1 1.00
            0.168714             1.000000
 d    1 1.00
            0.800000             1.000000

   36 0
 s    6 1.00
         3047.524900             0.001835
          457.369510             0.014037
          103.948690             0.068843
           29.210155             0.232184
            9.286663             0.467941
            3.163927             0.362312
 s    3 1.00
            7.868272            -0.119332
            1.881288            -0.160854
            0.544249             1.143456
 s    1 1.00
            0.168714             1.000000
 p    3 1.00
            7.868272             0.068999
            1.881288             0.316424
            0.544249             0.744308
 p    1 1.00
            0.168714             1.000000
 d    1 1.00
            0.800000             1.000000

   37 0
 s    3 1.00
           18.731137             0.033495
            2.825394             0.234727
            0.640122             0.813757
 s    1 1.00
            0.161278             1.000000

   38 0
 s    3 1.00
           18.731137             0.033495
            2.825394             0.234727
            0.640122             0.813757
 s    1 1.00
            0.161278             1.000000

   39 0
 s    6 1.00
         3047.524900             0.001835
          457.369510             0.014037
          103.948690             0.068843
           29.210155             0.232184
            9.286663             0.467941
            3.163927             0.362312
 s    3 1.00
            7.868272            -0.119332
            1.881288            -0.160854
            0.544249             1.143456
 s    1 1.00
            0.168714             1.000000
 p    3 1.00
            7.868272             0.068999
            1.881288             0.316424
            0.544249             0.744308
 p    1 1.00
            0.168714             1.000000
 d    1 1.00
            0.800000             1.000000

   40 0
 s    6 1.00
         3047.524900             0.001835
          457.369510             0.014037
          103.948690             0.068843
           29.210155             0.232184
            9.286663             0.467941
            3.163927             0.362312
 s    3 1.00
            7.868272            -0.119332
            1.881288            -0.160854
            0.544249             1.143456
 s    1 1.00
            0.168714             1.000000
 p    3 1.00
            7.868272             0.068999
            1.881288             0.316424
            0.544249             0.744308
 p    1 1.00
            0.168714             1.000000
 d    1 1.00
            0.800000             1.000000

   41 0
 s    3 1.00
           18.731137             0.033495
            2.825394             0.234727
            0.640122             0.813757
 s    1 1.00
            0.161278             1.000000

   42 0
 s    3 1.00
           18.731137             0.033495
            2.825394             0.234727
            0.640122             0.813757
 s    1 1.00
            0.161278             1.000000

   43 0
 s    3 1.00
           18.731137             0.033495
            2.825394             0.234727
            0.640122             0.813757
 s    1 1.00
            0.161278             1.000000

   44 0
 s    3 1.00
           18.731137             0.033495
            2.825394             0.234727
            0.640122             0.813757
 s    1 1.00
            0.161278             1.000000

[MO]
 Ene=   -46.3593
 Spin= Alpha
 Occup= 2.0
    1   -0.00001
    2    0.00010
    3    0.00003
    4    0.00007
    5    0.00001
    6    0.00004
    7    0.00001
    8    0.00004
    9    0.00007
   10   -0.00001
   11    0.00001
   12    0.00000
   13   -0.00004
   14    0.00013
   15   -0.00010
   16    0.00003
   17    0.00001
   18    0.00000
   19    0.00000
   20    0.00001
   21   -0.00000
   22    0.00003
   23    0.00012
   24   -0.00087
   25   -0.00001
   26    0.00000
   27    0.00002
   28   -0.00005
   29   -0.00006
   30    0.00027
   31    0.00005
   32    0.00003
   33   -0.00000
   34    0.00000
   35    0.00001
   36   -0.00000
   37    0.00002
   38    0.00011
   39   -0.00002
   40   -0.00005
   41    0.00003
   42    0.00011
   43    0.00001
   44    0.00006
   45   -0.00019
   46   -0.00003
   47    0.00001
   48   -0.00000
   49    0.00020
   50    0.00012
   51    0.00011
   52    0.00003
   53    0.00002
   54   -0.00000
   55    0.00000
   56    0.00001
   57    0.00000
   58   -0.00002
   59   -0.00005
   60    0.00014
   61    0.00001
   62   -0.00004
   63   -0.00002
   64    0.00014
   65   -0.00076
   66   -0.00011
   67   -0.00002
   68   -0.00017
   69    0.00000
   70   -0.00000
   71   -0.00001
   72    0.00002
   73   -0.00002
   74   -0.00004
   75   -0.00005
   76    0.00002
   77    0.00005
   78   -0.00008
   79   -0.00005
   80    0.00042
   81    0.00059
   82   -0.00001
   83   -0.00021
   84    0.00001
   85   -0.00001
   86   -0.00001
   87    0.00003
   88    0.00004
   89    0.00013
   90   -0.00000
   91   -0.00004
   92   -0.00054
   93    0.00004
   94    0.00002
   95   -0.00001
   96   -0.00024
   97   -0.00002
   98   -0.00021
   99   -0.00001
  100    0.00001
  101    0.00005
  102   -0.00000
  103   -0.00000
  104    0.00000
  105   -0.00000
  106   -0.00006
  107   -0.00006
  108    0.00002
  109   -0.00003
  110   -0.00004
  111   -0.00002
  112   -0.00034
  113   -0.00019
  114    0.00000
  115    0.00005
  116    0.00006
  117    0.00001
  118   -0.00000
  119   -0.00003
  120    0.00001
  121    0.00003
  122   -0.00017
  123   -0.00001
  124    0.00000
  125   -0.00000
  126    0.00005
  127   -0.00004
  128    0.00002
  129    0.00002
  130    0.00002
  131    0.00002
  132    0.00001
  133   -0.00000
  134    0.00000
  135    0.00006
  136    0.00015
  137   -0.00128
  138    0.00006
  139   -0.00001
  140   -0.00014
  141   -0.00056
  142    0.00040
  143    0.00219
  144    0.00016
  145    0.00015
  146    0.00017
  147   -0.00000
  148    0.00001
  149    0.00002
  150    0.00000
  151    0.00002
  152    0.00032
  153    0.00001
  154   -0.00000
  155   -0.00002
  156   -0.00013
  157   -0.00001
  158    0.00002
  159    0.00001
  160    0.00000
  161    0.00002
  162   -0.00000
  163   -0.00000
  164   -0.00000
  165   -0.00000
  166    0.00005
  167    0.00004
  168    0.00003
  169    0.00012
  170   -0.00001
  171    0.00027
  172   -0.00102
  173    0.00082
  174    0.00004
  175    0.00002
  176   -0.00016
  177   -0.00003
  178   -0.00004
  179   -0.00001
  180   -0.00002
  181   -0.00000
  182   -0.00010
  183    0.00001
  184   -0.00006
  185    0.00008
  186   -0.00001
  187    0.00057
  188    0.00040
  189   -0.00001
  190    0.00000
  191   -0.00025
  192   -0.00001
  193    0.00001
  194   -0.00005
  195    0.00002
  196   -0.00003
  197    0.00000
  198    0.00005
  199   -0.00080
  200   -0.00003
  201   -0.00005
  202    0.00001
  203    0.00028
  204   -0.00036
  205   -0.00036
  206   -0.00000
  207   -0.00005
  208   -0.00003
  209    0.00002
  210    0.00000
  211   -0.00001
  212    0.00001
  213    0.00007
  214   -0.00041
  215   -0.00000
  216    0.00001
  217   -0.00001
  218   -0.00002
  219    0.00018
  220   -0.00011
  221    0.00003
  222   -0.00003
  223   -0.00002
  224    0.00001
  225   -0.00000
  226    0.00001
  227    0.99717
  228    0.01234
  229   -0.01102
  230   -0.00167
  231    0.00007
  232    0.00001
  233    0.00001
  234   -0.00071
  235    0.00020
  236   -0.00026