[Molden Format]
[Title]
Written by TeraChem
[Atoms] Angs
Mg   1   12     -1.55102   16.38509   26.90703
C   2   6     -2.21779   14.26523   29.54152
C   3   6     -2.43817   19.03664   28.94721
C   4   6     -1.91404   18.46852   24.18807
C   5   6     -1.51730   13.67613   24.74591
N   6   7     -2.24702   16.60812   28.97016
C   7   6     -2.37706   15.57330   29.88313
C   8   6     -2.68403   16.11163   31.26185
C   9   6     -2.91983   17.60212   31.00079
C   10   6     -2.49420   17.77190   29.55599
H   11   1     -3.97680   17.87561   31.10301
H   12   1     -1.83544   15.94884   31.93838
N   13   7     -1.88666   18.40525   26.64299
C   14   6     -2.19421   19.32072   27.61702
C   15   6     -2.36462   20.63001   27.01130
C   16   6     -2.23447   20.46598   25.67489
C   17   6     -1.96630   19.05695   25.44106
H   18   1     -2.58555   21.53885   27.55678
H   19   1     -2.32554   21.21315   24.89658
N   20   7     -1.66584   16.12282   24.77592
C   21   6     -1.80655   17.10259   23.89025
C   22   6     -1.91080   16.57311   22.47392
C   23   6     -1.56381   15.09045   22.63596
C   24   6     -1.57915   14.89741   24.14117
H   25   1     -2.93576   16.71493   22.11047
H   26   1     -0.57273   14.85345   22.23027
N   27   7     -1.81455   14.40016   27.05234
C   28   6     -1.62777   13.39394   26.13602
C   29   6     -1.64821   12.12644   26.77552
C   30   6     -1.86594   12.39199   28.12834
C   31   6     -1.95747   13.78992   28.23196
H   32   1     -1.53571   11.16732   26.28626
C   33   6     -2.08227   11.82298   29.46102
O   34   8     -2.11959   10.66730   29.82415
C   35   6     -2.29043   13.03331   30.41979
H   36   1     -1.50533   12.99822   31.18525
H   37   1     -2.67979   19.88575   29.58134
H   38   1     -2.02784   19.13849   23.33977
H   39   1     -1.42521   12.81541   24.08712
H   40   1     -3.54689   15.61172   31.71147
H   41   1     -2.35678   18.25949   31.67021
H   42   1     -1.25356   17.11182   21.78379
H   43   1     -2.27802   14.43051   22.13632
H   44   1     -3.25022   12.92260   30.93801
[GTO]
    1 0
 s    6 1.00
        11722.800000             0.001978
         1759.930000             0.015114
          400.846000             0.073911
          112.807000             0.249191
           35.999700             0.487928
           12.182800             0.319662
 s    6 1.00
          189.180000            -0.003237
           45.211900            -0.041008
           14.356300            -0.112600
            5.138860             0.148633
            1.906520             0.616497
            0.705887             0.364829
 s    3 1.00
            0.929340            -0.212291
            0.269035            -0.107985
            0.117379             1.175845
 s    1 1.00
            0.042106             1.000000
 p    6 1.00
          189.180000             0.004928
           45.211900             0.034989
           14.356300             0.140725
            5.138860             0.333642
            1.906520             0.444940
            0.705887             0.269254
 p    3 1.00
            0.929340            -0.022419
            0.269035             0.192270
            0.117379             0.846181
 p    1 1.00
            0.042106             1.000000
 d    1 1.00
            0.175000             1.000000

    2 0
 s    6 1.00
         3047.524900             0.001835
          457.369510             0.014037
          103.948690             0.068843
           29.210155             0.232184
            9.286663             0.467941
            3.163927             0.362312
 s    3 1.00
            7.868272            -0.119332
            1.881288            -0.160854
            0.544249             1.143456
 s    1 1.00
            0.168714             1.000000
 p    3 1.00
            7.868272             0.068999
            1.881288             0.316424
            0.544249             0.744308
 p    1 1.00
            0.168714             1.000000
 d    1 1.00
            0.800000             1.000000

    3 0
 s    6 1.00
         3047.524900             0.001835
          457.369510             0.014037
          103.948690             0.068843
           29.210155             0.232184
            9.286663             0.467941
            3.163927             0.362312
 s    3 1.00
            7.868272            -0.119332
            1.881288            -0.160854
            0.544249             1.143456
 s    1 1.00
            0.168714             1.000000
 p    3 1.00
            7.868272             0.068999
            1.881288             0.316424
            0.544249             0.744308
 p    1 1.00
            0.168714             1.000000
 d    1 1.00
            0.800000             1.000000

    4 0
 s    6 1.00
         3047.524900             0.001835
          457.369510             0.014037
          103.948690             0.068843
           29.210155             0.232184
            9.286663             0.467941
            3.163927             0.362312
 s    3 1.00
            7.868272            -0.119332
            1.881288            -0.160854
            0.544249             1.143456
 s    1 1.00
            0.168714             1.000000
 p    3 1.00
            7.868272             0.068999
            1.881288             0.316424
            0.544249             0.744308
 p    1 1.00
            0.168714             1.000000
 d    1 1.00
            0.800000             1.000000

    5 0
 s    6 1.00
         3047.524900             0.001835
          457.369510             0.014037
          103.948690             0.068843
           29.210155             0.232184
            9.286663             0.467941
            3.163927             0.362312
 s    3 1.00
            7.868272            -0.119332
            1.881288            -0.160854
            0.544249             1.143456
 s    1 1.00
            0.168714             1.000000
 p    3 1.00
            7.868272             0.068999
            1.881288             0.316424
            0.544249             0.744308
 p    1 1.00
            0.168714             1.000000
 d    1 1.00
            0.800000             1.000000

    6 0
 s    6 1.00
         4173.511000             0.001835
          627.457900             0.013995
          142.902100             0.068587
           40.234330             0.232241
           12.820210             0.469070
            4.390437             0.360455
 s    3 1.00
           11.626358            -0.114961
            2.716280            -0.169118
            0.772218             1.145852
 s    1 1.00
            0.212031             1.000000
 p    3 1.00
           11.626358             0.067580
            2.716280             0.323907
            0.772218             0.740895
 p    1 1.00
            0.212031             1.000000
 d    1 1.00
            0.800000             1.000000

    7 0
 s    6 1.00
         3047.524900             0.001835
          457.369510             0.014037
          103.948690             0.068843
           29.210155             0.232184
            9.286663             0.467941
            3.163927             0.362312
 s    3 1.00
            7.868272            -0.119332
            1.881288            -0.160854
            0.544249             1.143456
 s    1 1.00
            0.168714             1.000000
 p    3 1.00
            7.868272             0.068999
            1.881288             0.316424
            0.544249             0.744308
 p    1 1.00
            0.168714             1.000000
 d    1 1.00
            0.800000             1.000000

    8 0
 s    6 1.00
         3047.524900             0.001835
          457.369510             0.014037
          103.948690             0.068843
           29.210155             0.232184
            9.286663             0.467941
            3.163927             0.362312
 s    3 1.00
            7.868272            -0.119332
            1.881288            -0.160854
            0.544249             1.143456
 s    1 1.00
            0.168714             1.000000
 p    3 1.00
            7.868272             0.068999
            1.881288             0.316424
            0.544249             0.744308
 p    1 1.00
            0.168714             1.000000
 d    1 1.00
            0.800000             1.000000

    9 0
 s    6 1.00
         3047.524900             0.001835
          457.369510             0.014037
          103.948690             0.068843
           29.210155             0.232184
            9.286663             0.467941
            3.163927             0.362312
 s    3 1.00
            7.868272            -0.119332
            1.881288            -0.160854
            0.544249             1.143456
 s    1 1.00
            0.168714             1.000000
 p    3 1.00
            7.868272             0.068999
            1.881288             0.316424
            0.544249             0.744308
 p    1 1.00
            0.168714             1.000000
 d    1 1.00
            0.800000             1.000000

   10 0
 s    6 1.00
         3047.524900             0.001835
          457.369510             0.014037
          103.948690             0.068843
           29.210155             0.232184
            9.286663             0.467941
            3.163927             0.362312
 s    3 1.00
            7.868272            -0.119332
            1.881288            -0.160854
            0.544249             1.143456
 s    1 1.00
            0.168714             1.000000
 p    3 1.00
            7.868272             0.068999
            1.881288             0.316424
            0.544249             0.744308
 p    1 1.00
            0.168714             1.000000
 d    1 1.00
            0.800000             1.000000

   11 0
 s    3 1.00
           18.731137             0.033495
            2.825394             0.234727
            0.640122             0.813757
 s    1 1.00
            0.161278             1.000000

   12 0
 s    3 1.00
           18.731137             0.033495
            2.825394             0.234727
            0.640122             0.813757
 s    1 1.00
            0.161278             1.000000

   13 0
 s    6 1.00
         4173.511000             0.001835
          627.457900             0.013995
          142.902100             0.068587
           40.234330             0.232241
           12.820210             0.469070
            4.390437             0.360455
 s    3 1.00
           11.626358            -0.114961
            2.716280            -0.169118
            0.772218             1.145852
 s    1 1.00
            0.212031             1.000000
 p    3 1.00
           11.626358             0.067580
            2.716280             0.323907
            0.772218             0.740895
 p    1 1.00
            0.212031             1.000000
 d    1 1.00
            0.800000             1.000000

   14 0
 s    6 1.00
         3047.524900             0.001835
          457.369510             0.014037
          103.948690             0.068843
           29.210155             0.232184
            9.286663             0.467941
            3.163927             0.362312
 s    3 1.00
            7.868272            -0.119332
            1.881288            -0.160854
            0.544249             1.143456
 s    1 1.00
            0.168714             1.000000
 p    3 1.00
            7.868272             0.068999
            1.881288             0.316424
            0.544249             0.744308
 p    1 1.00
            0.168714             1.000000
 d    1 1.00
            0.800000             1.000000

   15 0
 s    6 1.00
         3047.524900             0.001835
          457.369510             0.014037
          103.948690             0.068843
           29.210155             0.232184
            9.286663             0.467941
            3.163927             0.362312
 s    3 1.00
            7.868272            -0.119332
            1.881288            -0.160854
            0.544249             1.143456
 s    1 1.00
            0.168714             1.000000
 p    3 1.00
            7.868272             0.068999
            1.881288             0.316424
            0.544249             0.744308
 p    1 1.00
            0.168714             1.000000
 d    1 1.00
            0.800000             1.000000

   16 0
 s    6 1.00
         3047.524900             0.001835
          457.369510             0.014037
          103.948690             0.068843
           29.210155             0.232184
            9.286663             0.467941
            3.163927             0.362312
 s    3 1.00
            7.868272            -0.119332
            1.881288            -0.160854
            0.544249             1.143456
 s    1 1.00
            0.168714             1.000000
 p    3 1.00
            7.868272             0.068999
            1.881288             0.316424
            0.544249             0.744308
 p    1 1.00
            0.168714             1.000000
 d    1 1.00
            0.800000             1.000000

   17 0
 s    6 1.00
         3047.524900             0.001835
          457.369510             0.014037
          103.948690             0.068843
           29.210155             0.232184
            9.286663             0.467941
            3.163927             0.362312
 s    3 1.00
            7.868272            -0.119332
            1.881288            -0.160854
            0.544249             1.143456
 s    1 1.00
            0.168714             1.000000
 p    3 1.00
            7.868272             0.068999
            1.881288             0.316424
            0.544249             0.744308
 p    1 1.00
            0.168714             1.000000
 d    1 1.00
            0.800000             1.000000

   18 0
 s    3 1.00
           18.731137             0.033495
            2.825394             0.234727
            0.640122             0.813757
 s    1 1.00
            0.161278             1.000000

   19 0
 s    3 1.00
           18.731137             0.033495
            2.825394             0.234727
            0.640122             0.813757
 s    1 1.00
            0.161278             1.000000

   20 0
 s    6 1.00
         4173.511000             0.001835
          627.457900             0.013995
          142.902100             0.068587
           40.234330             0.232241
           12.820210             0.469070
            4.390437             0.360455
 s    3 1.00
           11.626358            -0.114961
            2.716280            -0.169118
            0.772218             1.145852
 s    1 1.00
            0.212031             1.000000
 p    3 1.00
           11.626358             0.067580
            2.716280             0.323907
            0.772218             0.740895
 p    1 1.00
            0.212031             1.000000
 d    1 1.00
            0.800000             1.000000

   21 0
 s    6 1.00
         3047.524900             0.001835
          457.369510             0.014037
          103.948690             0.068843
           29.210155             0.232184
            9.286663             0.467941
            3.163927             0.362312
 s    3 1.00
            7.868272            -0.119332
            1.881288            -0.160854
            0.544249             1.143456
 s    1 1.00
            0.168714             1.000000
 p    3 1.00
            7.868272             0.068999
            1.881288             0.316424
            0.544249             0.744308
 p    1 1.00
            0.168714             1.000000
 d    1 1.00
            0.800000             1.000000

   22 0
 s    6 1.00
         3047.524900             0.001835
          457.369510             0.014037
          103.948690             0.068843
           29.210155             0.232184
            9.286663             0.467941
            3.163927             0.362312
 s    3 1.00
            7.868272            -0.119332
            1.881288            -0.160854
            0.544249             1.143456
 s    1 1.00
            0.168714             1.000000
 p    3 1.00
            7.868272             0.068999
            1.881288             0.316424
            0.544249             0.744308
 p    1 1.00
            0.168714             1.000000
 d    1 1.00
            0.800000             1.000000

   23 0
 s    6 1.00
         3047.524900             0.001835
          457.369510             0.014037
          103.948690             0.068843
           29.210155             0.232184
            9.286663             0.467941
            3.163927             0.362312
 s    3 1.00
            7.868272            -0.119332
            1.881288            -0.160854
            0.544249             1.143456
 s    1 1.00
            0.168714             1.000000
 p    3 1.00
            7.868272             0.068999
            1.881288             0.316424
            0.544249             0.744308
 p    1 1.00
            0.168714             1.000000
 d    1 1.00
            0.800000             1.000000

   24 0
 s    6 1.00
         3047.524900             0.001835
          457.369510             0.014037
          103.948690             0.068843
           29.210155             0.232184
            9.286663             0.467941
            3.163927             0.362312
 s    3 1.00
            7.868272            -0.119332
            1.881288            -0.160854
            0.544249             1.143456
 s    1 1.00
            0.168714             1.000000
 p    3 1.00
            7.868272             0.068999
            1.881288             0.316424
            0.544249             0.744308
 p    1 1.00
            0.168714             1.000000
 d    1 1.00
            0.800000             1.000000

   25 0
 s    3 1.00
           18.731137             0.033495
            2.825394             0.234727
            0.640122             0.813757
 s    1 1.00
            0.161278             1.000000

   26 0
 s    3 1.00
           18.731137             0.033495
            2.825394             0.234727
            0.640122             0.813757
 s    1 1.00
            0.161278             1.000000

   27 0
 s    6 1.00
         4173.511000             0.001835
          627.457900             0.013995
          142.902100             0.068587
           40.234330             0.232241
           12.820210             0.469070
            4.390437             0.360455
 s    3 1.00
           11.626358            -0.114961
            2.716280            -0.169118
            0.772218             1.145852
 s    1 1.00
            0.212031             1.000000
 p    3 1.00
           11.626358             0.067580
            2.716280             0.323907
            0.772218             0.740895
 p    1 1.00
            0.212031             1.000000
 d    1 1.00
            0.800000             1.000000

   28 0
 s    6 1.00
         3047.524900             0.001835
          457.369510             0.014037
          103.948690             0.068843
           29.210155             0.232184
            9.286663             0.467941
            3.163927             0.362312
 s    3 1.00
            7.868272            -0.119332
            1.881288            -0.160854
            0.544249             1.143456
 s    1 1.00
            0.168714             1.000000
 p    3 1.00
            7.868272             0.068999
            1.881288             0.316424
            0.544249             0.744308
 p    1 1.00
            0.168714             1.000000
 d    1 1.00
            0.800000             1.000000

   29 0
 s    6 1.00
         3047.524900             0.001835
          457.369510             0.014037
          103.948690             0.068843
           29.210155             0.232184
            9.286663             0.467941
            3.163927             0.362312
 s    3 1.00
            7.868272            -0.119332
            1.881288            -0.160854
            0.544249             1.143456
 s    1 1.00
            0.168714             1.000000
 p    3 1.00
            7.868272             0.068999
            1.881288             0.316424
            0.544249             0.744308
 p    1 1.00
            0.168714             1.000000
 d    1 1.00
            0.800000             1.000000

   30 0
 s    6 1.00
         3047.524900             0.001835
          457.369510             0.014037
          103.948690             0.068843
           29.210155             0.232184
            9.286663             0.467941
            3.163927             0.362312
 s    3 1.00
            7.868272            -0.119332
            1.881288            -0.160854
            0.544249             1.143456
 s    1 1.00
            0.168714             1.000000
 p    3 1.00
            7.868272             0.068999
            1.881288             0.316424
            0.544249             0.744308
 p    1 1.00
            0.168714             1.000000
 d    1 1.00
            0.800000             1.000000

   31 0
 s    6 1.00
         3047.524900             0.001835
          457.369510             0.014037
          103.948690             0.068843
           29.210155             0.232184
            9.286663             0.467941
            3.163927             0.362312
 s    3 1.00
            7.868272            -0.119332
            1.881288            -0.160854
            0.544249             1.143456
 s    1 1.00
            0.168714             1.000000
 p    3 1.00
            7.868272             0.068999
            1.881288             0.316424
            0.544249             0.744308
 p    1 1.00
            0.168714             1.000000
 d    1 1.00
            0.800000             1.000000

   32 0
 s    3 1.00
           18.731137             0.033495
            2.825394             0.234727
            0.640122             0.813757
 s    1 1.00
            0.161278             1.000000

   33 0
 s    6 1.00
         3047.524900             0.001835
          457.369510             0.014037
          103.948690             0.068843
           29.210155             0.232184
            9.286663             0.467941
            3.163927             0.362312
 s    3 1.00
            7.868272            -0.119332
            1.881288            -0.160854
            0.544249             1.143456
 s    1 1.00
            0.168714             1.000000
 p    3 1.00
            7.868272             0.068999
            1.881288             0.316424
            0.544249             0.744308
 p    1 1.00
            0.168714             1.000000
 d    1 1.00
            0.800000             1.000000

   34 0
 s    6 1.00
         5484.671700             0.001831
          825.234950             0.013950
          188.046960             0.068445
           52.964500             0.232714
           16.897570             0.470193
            5.799635             0.358521
 s    3 1.00
           15.539616            -0.110778
            3.599934            -0.148026
            1.013762             1.130767
 s    1 1.00
            0.270006             1.000000
 p    3 1.00
           15.539616             0.070874
            3.599934             0.339753
            1.013762             0.727159
 p    1 1.00
            0.270006             1.000000
 d    1 1.00
            0.800000             1.000000

   35 0
 s    6 1.00
         3047.524900             0.001835
          457.369510             0.014037
          103.948690             0.068843
           29.210155             0.232184
            9.286663             0.467941
            3.163927             0.362312
 s    3 1.00
            7.868272            -0.119332
            1.881288            -0.160854
            0.544249             1.143456
 s    1 1.00
            0.168714             1.000000
 p    3 1.00
            7.868272             0.068999
            1.881288             0.316424
            0.544249             0.744308
 p    1 1.00
            0.168714             1.000000
 d    1 1.00
            0.800000             1.000000

   36 0
 s    3 1.00
           18.731137             0.033495
            2.825394             0.234727
            0.640122             0.813757
 s    1 1.00
            0.161278             1.000000

   37 0
 s    3 1.00
           18.731137             0.033495
            2.825394             0.234727
            0.640122             0.813757
 s    1 1.00
            0.161278             1.000000

   38 0
 s    3 1.00
           18.731137             0.033495
            2.825394             0.234727
            0.640122             0.813757
 s    1 1.00
            0.161278             1.000000

   39 0
 s    3 1.00
           18.731137             0.033495
            2.825394             0.234727
            0.640122             0.813757
 s    1 1.00
            0.161278             1.000000

   40 0
 s    3 1.00
           18.731137             0.033495
            2.825394             0.234727
            0.640122             0.813757
 s    1 1.00
            0.161278             1.000000

   41 0
 s    3 1.00
           18.731137             0.033495
            2.825394             0.234727
            0.640122             0.813757
 s    1 1.00
            0.161278             1.000000

   42 0
 s    3 1.00
           18.731137             0.033495
            2.825394             0.234727
            0.640122             0.813757
 s    1 1.00
            0.161278             1.000000

   43 0
 s    3 1.00
           18.731137             0.033495
            2.825394             0.234727
            0.640122             0.813757
 s    1 1.00
            0.161278             1.000000

   44 0
 s    3 1.00
           18.731137             0.033495
            2.825394             0.234727
            0.640122             0.813757
 s    1 1.00
            0.161278             1.000000

[MO]
 Ene=   -46.3643
 Spin= Alpha
 Occup= 2.0
    1    0.99717
    2    0.01229
    3   -0.01108
    4   -0.00173
    5    0.00010
    6    0.00002
    7    0.00002
    8   -0.00093
    9   -0.00035
   10   -0.00026
   11    0.00016
   12    0.00007
   13    0.00005
   14    0.00521
   15    0.00913
   16    0.00733
   17   -0.00009
   18   -0.00029
   19   -0.00016
   20   -0.00001
   21   -0.00010
   22    0.00026
   23    0.00004
   24    0.00001
   25   -0.00002
   26   -0.00021
   27    0.00062
   28   -0.00009
   29   -0.00002
   30    0.00002
   31    0.00006
   32   -0.00001
   33   -0.00002
   34    0.00001
   35   -0.00001
   36   -0.00006
   37   -0.00000
   38    0.00002
   39   -0.00002
   40   -0.00003
   41   -0.00001
   42   -0.00036
   43   -0.00010
   44   -0.00001
   45    0.00004
   46    0.00005
   47    0.00001
   48   -0.00001
   49   -0.00002
   50   -0.00001
   51   -0.00006
   52   -0.00002
   53    0.00002
   54   -0.00001
   55    0.00004
   56   -0.00002
   57   -0.00036
   58    0.00016
   59   -0.00001
   60    0.00005
   61    0.00004
   62   -0.00000
   63   -0.00001
   64    0.00003
   65   -0.00000
   66   -0.00005
   67   -0.00030
   68    0.00002
   69    0.00003
   70    0.00001
   71   -0.00011
   72    0.00011
   73   -0.00002
   74   -0.00000
   75    0.00004
   76    0.00003
   77   -0.00001
   78   -0.00001
   79   -0.00003
   80    0.00004
   81    0.00010
   82   -0.00095
   83    0.00006
   84    0.00000
   85   -0.00006
   86   -0.00059
   87    0.00021
   88    0.00116
   89    0.00009
   90    0.00008
   91    0.00014
   92   -0.00000
   93    0.00000
   94    0.00002
   95   -0.00001
   96   -0.00001
   97   -0.00033
   98    0.00002
   99   -0.00002
  100   -0.00004
  101    0.00008
  102    0.00007
  103    0.00017
  104   -0.00001
  105   -0.00014
  106    0.00001
  107    0.00002
  108   -0.00001
  109    0.00000
  110    0.00001
  111    0.00004
  112   -0.00014
  113   -0.00001
  114    0.00000
  115    0.00001
  116   -0.00005
  117    0.00009
  118   -0.00000
  119    0.00002
  120    0.00002
  121   -0.00000
  122    0.00000
  123    0.00001
  124    0.00000
  125    0.00003
  126    0.00012
  127   -0.00088
  128   -0.00001
  129    0.00000
  130    0.00002
  131   -0.00007
  132   -0.00003
  133    0.00029
  134    0.00004
  135    0.00003
  136    0.00000
  137    0.00000
  138    0.00002
  139   -0.00001
  140   -0.00002
  141   -0.00003
  142    0.00013
  143    0.00003
  144    0.00002
  145   -0.00008
  146   -0.00012
  147    0.00015
  148    0.00060
  149   -0.00000
  150   -0.00015
  151    0.00000
  152   -0.00001
  153   -0.00001
  154    0.00003
  155    0.00002
  156    0.00010
  157   -0.00000
  158    0.00007
  159    0.00007
  160    0.00010
  161   -0.00150
  162    0.00007
  163   -0.00016
  164    0.00003
  165   -0.00066
  166    0.00248
  167   -0.00042
  168    0.00016
  169    0.00029
  170    0.00019
  171    0.00000
  172   -0.00000
  173   -0.00002
  174   -0.00003
  175   -0.00003
  176   -0.00000
  177    0.00001
  178   -0.00004
  179    0.00008
  180   -0.00008
  181    0.00041
  182    0.00046
  183   -0.00002
  184   -0.00000
  185   -0.00023
  186   -0.00001
  187    0.00004
  188   -0.00004
  189    0.00001
  190    0.00007
  191   -0.00030
  192   -0.00000
  193    0.00001
  194   -0.00001
  195   -0.00003
  196    0.00015
  197   -0.00009
  198    0.00002
  199   -0.00003
  200   -0.00001
  201    0.00002
  202    0.00000
  203    0.00001
  204    0.00001
  205    0.00007
  206   -0.00030
  207   -0.00000
  208    0.00001
  209    0.00001
  210   -0.00006
  211    0.00018
  212    0.00009
  213    0.00002
  214   -0.00003
  215   -0.00001
  216    0.00002
  217    0.00000
  218    0.00000
  219   -0.00003
  220   -0.00002
  221   -0.00006
  222    0.00002
  223   -0.00006
  224   -0.00006
  225    0.00002
  226    0.00038
  227   -0.00063
  228   -0.00002
  229   -0.00000
  230   -0.00024
  231   -0.00001
  232    0.00002
  233   -0.00002
  234    0.00002
  235   -0.00003
  236    0.00002