[Molden Format]
[Title]
Written by TeraChem
[Atoms] Angs
H   1   1     19.22824   23.78706   30.96839
C   2   6     19.46558   22.88206   30.42269
H   3   1     19.52401   22.18088   33.04607
H   4   1     19.47759   23.46509   28.30843
C   5   6     19.59500   22.72179   29.08705
H   6   1     20.84510   20.69810   34.94216
C   7   6     19.72845   21.33457   32.39595
C   8   6     19.72371   21.58493   31.03359
C   9   6     20.09273   20.00877   34.54524
H   10   1     19.13511   20.29372   34.99581
C   11   6     20.02122   20.11872   33.03434
C   12   6     19.92557   21.32289   28.85456
N   13   7     19.99053   20.67420   30.05662
C   14   6     20.44920   18.53509   34.78225
H   15   1     21.40670   18.41565   35.30007
H   16   1     20.10354   21.43404   26.76258
N   17   7     20.26342   18.95639   32.43770
C   18   6     20.15711   20.76223   27.61443
H   19   1     19.69780   18.01167   35.38457
C   20   6     20.51679   17.96957   33.38244
Mg   21   12     20.15729   18.67531   30.30276
C   22   6     20.45126   19.41758   27.32412
C   23   6     20.77528   16.68222   33.03811
N   24   7     20.47233   18.42528   28.20244
C   25   6     20.79031   18.95439   25.92506
H   26   1     19.99062   19.22654   25.23023
H   27   1     21.70569   19.44849   25.58045
C   28   6     21.08368   15.50354   33.93472
N   29   7     20.66035   16.74575   30.50833
C   30   6     20.83022   16.18030   31.71007
H   31   1     21.97500   15.65540   34.55506
H   32   1     20.26546   15.24745   34.62058
C   33   6     20.76773   17.22141   27.57759
C   34   6     20.96482   17.44136   26.09040
C   35   6     20.89288   15.74402   29.59140
C   36   6     21.15862   14.82023   31.61801
C   37   6     21.33322   14.30131   32.97419
C   38   6     20.91049   16.01428   28.19143
H   39   1     20.23375   16.87014   25.51253
H   40   1     21.95699   17.10237   25.77760
C   41   6     21.19424   14.52793   30.24879
O   42   8     21.60556   13.18356   33.35906
H   43   1     21.11616   15.16496   27.54470
H   44   1     21.41343   13.58462   29.76591
[GTO]
    1 0
 s    3 1.00
           18.731137             0.033495
            2.825394             0.234727
            0.640122             0.813757
 s    1 1.00
            0.161278             1.000000

    2 0
 s    6 1.00
         3047.524900             0.001835
          457.369510             0.014037
          103.948690             0.068843
           29.210155             0.232184
            9.286663             0.467941
            3.163927             0.362312
 s    3 1.00
            7.868272            -0.119332
            1.881288            -0.160854
            0.544249             1.143456
 s    1 1.00
            0.168714             1.000000
 p    3 1.00
            7.868272             0.068999
            1.881288             0.316424
            0.544249             0.744308
 p    1 1.00
            0.168714             1.000000
 d    1 1.00
            0.800000             1.000000

    3 0
 s    3 1.00
           18.731137             0.033495
            2.825394             0.234727
            0.640122             0.813757
 s    1 1.00
            0.161278             1.000000

    4 0
 s    3 1.00
           18.731137             0.033495
            2.825394             0.234727
            0.640122             0.813757
 s    1 1.00
            0.161278             1.000000

    5 0
 s    6 1.00
         3047.524900             0.001835
          457.369510             0.014037
          103.948690             0.068843
           29.210155             0.232184
            9.286663             0.467941
            3.163927             0.362312
 s    3 1.00
            7.868272            -0.119332
            1.881288            -0.160854
            0.544249             1.143456
 s    1 1.00
            0.168714             1.000000
 p    3 1.00
            7.868272             0.068999
            1.881288             0.316424
            0.544249             0.744308
 p    1 1.00
            0.168714             1.000000
 d    1 1.00
            0.800000             1.000000

    6 0
 s    3 1.00
           18.731137             0.033495
            2.825394             0.234727
            0.640122             0.813757
 s    1 1.00
            0.161278             1.000000

    7 0
 s    6 1.00
         3047.524900             0.001835
          457.369510             0.014037
          103.948690             0.068843
           29.210155             0.232184
            9.286663             0.467941
            3.163927             0.362312
 s    3 1.00
            7.868272            -0.119332
            1.881288            -0.160854
            0.544249             1.143456
 s    1 1.00
            0.168714             1.000000
 p    3 1.00
            7.868272             0.068999
            1.881288             0.316424
            0.544249             0.744308
 p    1 1.00
            0.168714             1.000000
 d    1 1.00
            0.800000             1.000000

    8 0
 s    6 1.00
         3047.524900             0.001835
          457.369510             0.014037
          103.948690             0.068843
           29.210155             0.232184
            9.286663             0.467941
            3.163927             0.362312
 s    3 1.00
            7.868272            -0.119332
            1.881288            -0.160854
            0.544249             1.143456
 s    1 1.00
            0.168714             1.000000
 p    3 1.00
            7.868272             0.068999
            1.881288             0.316424
            0.544249             0.744308
 p    1 1.00
            0.168714             1.000000
 d    1 1.00
            0.800000             1.000000

    9 0
 s    6 1.00
         3047.524900             0.001835
          457.369510             0.014037
          103.948690             0.068843
           29.210155             0.232184
            9.286663             0.467941
            3.163927             0.362312
 s    3 1.00
            7.868272            -0.119332
            1.881288            -0.160854
            0.544249             1.143456
 s    1 1.00
            0.168714             1.000000
 p    3 1.00
            7.868272             0.068999
            1.881288             0.316424
            0.544249             0.744308
 p    1 1.00
            0.168714             1.000000
 d    1 1.00
            0.800000             1.000000

   10 0
 s    3 1.00
           18.731137             0.033495
            2.825394             0.234727
            0.640122             0.813757
 s    1 1.00
            0.161278             1.000000

   11 0
 s    6 1.00
         3047.524900             0.001835
          457.369510             0.014037
          103.948690             0.068843
           29.210155             0.232184
            9.286663             0.467941
            3.163927             0.362312
 s    3 1.00
            7.868272            -0.119332
            1.881288            -0.160854
            0.544249             1.143456
 s    1 1.00
            0.168714             1.000000
 p    3 1.00
            7.868272             0.068999
            1.881288             0.316424
            0.544249             0.744308
 p    1 1.00
            0.168714             1.000000
 d    1 1.00
            0.800000             1.000000

   12 0
 s    6 1.00
         3047.524900             0.001835
          457.369510             0.014037
          103.948690             0.068843
           29.210155             0.232184
            9.286663             0.467941
            3.163927             0.362312
 s    3 1.00
            7.868272            -0.119332
            1.881288            -0.160854
            0.544249             1.143456
 s    1 1.00
            0.168714             1.000000
 p    3 1.00
            7.868272             0.068999
            1.881288             0.316424
            0.544249             0.744308
 p    1 1.00
            0.168714             1.000000
 d    1 1.00
            0.800000             1.000000

   13 0
 s    6 1.00
         4173.511000             0.001835
          627.457900             0.013995
          142.902100             0.068587
           40.234330             0.232241
           12.820210             0.469070
            4.390437             0.360455
 s    3 1.00
           11.626358            -0.114961
            2.716280            -0.169118
            0.772218             1.145852
 s    1 1.00
            0.212031             1.000000
 p    3 1.00
           11.626358             0.067580
            2.716280             0.323907
            0.772218             0.740895
 p    1 1.00
            0.212031             1.000000
 d    1 1.00
            0.800000             1.000000

   14 0
 s    6 1.00
         3047.524900             0.001835
          457.369510             0.014037
          103.948690             0.068843
           29.210155             0.232184
            9.286663             0.467941
            3.163927             0.362312
 s    3 1.00
            7.868272            -0.119332
            1.881288            -0.160854
            0.544249             1.143456
 s    1 1.00
            0.168714             1.000000
 p    3 1.00
            7.868272             0.068999
            1.881288             0.316424
            0.544249             0.744308
 p    1 1.00
            0.168714             1.000000
 d    1 1.00
            0.800000             1.000000

   15 0
 s    3 1.00
           18.731137             0.033495
            2.825394             0.234727
            0.640122             0.813757
 s    1 1.00
            0.161278             1.000000

   16 0
 s    3 1.00
           18.731137             0.033495
            2.825394             0.234727
            0.640122             0.813757
 s    1 1.00
            0.161278             1.000000

   17 0
 s    6 1.00
         4173.511000             0.001835
          627.457900             0.013995
          142.902100             0.068587
           40.234330             0.232241
           12.820210             0.469070
            4.390437             0.360455
 s    3 1.00
           11.626358            -0.114961
            2.716280            -0.169118
            0.772218             1.145852
 s    1 1.00
            0.212031             1.000000
 p    3 1.00
           11.626358             0.067580
            2.716280             0.323907
            0.772218             0.740895
 p    1 1.00
            0.212031             1.000000
 d    1 1.00
            0.800000             1.000000

   18 0
 s    6 1.00
         3047.524900             0.001835
          457.369510             0.014037
          103.948690             0.068843
           29.210155             0.232184
            9.286663             0.467941
            3.163927             0.362312
 s    3 1.00
            7.868272            -0.119332
            1.881288            -0.160854
            0.544249             1.143456
 s    1 1.00
            0.168714             1.000000
 p    3 1.00
            7.868272             0.068999
            1.881288             0.316424
            0.544249             0.744308
 p    1 1.00
            0.168714             1.000000
 d    1 1.00
            0.800000             1.000000

   19 0
 s    3 1.00
           18.731137             0.033495
            2.825394             0.234727
            0.640122             0.813757
 s    1 1.00
            0.161278             1.000000

   20 0
 s    6 1.00
         3047.524900             0.001835
          457.369510             0.014037
          103.948690             0.068843
           29.210155             0.232184
            9.286663             0.467941
            3.163927             0.362312
 s    3 1.00
            7.868272            -0.119332
            1.881288            -0.160854
            0.544249             1.143456
 s    1 1.00
            0.168714             1.000000
 p    3 1.00
            7.868272             0.068999
            1.881288             0.316424
            0.544249             0.744308
 p    1 1.00
            0.168714             1.000000
 d    1 1.00
            0.800000             1.000000

   21 0
 s    6 1.00
        11722.800000             0.001978
         1759.930000             0.015114
          400.846000             0.073911
          112.807000             0.249191
           35.999700             0.487928
           12.182800             0.319662
 s    6 1.00
          189.180000            -0.003237
           45.211900            -0.041008
           14.356300            -0.112600
            5.138860             0.148633
            1.906520             0.616497
            0.705887             0.364829
 s    3 1.00
            0.929340            -0.212291
            0.269035            -0.107985
            0.117379             1.175845
 s    1 1.00
            0.042106             1.000000
 p    6 1.00
          189.180000             0.004928
           45.211900             0.034989
           14.356300             0.140725
            5.138860             0.333642
            1.906520             0.444940
            0.705887             0.269254
 p    3 1.00
            0.929340            -0.022419
            0.269035             0.192270
            0.117379             0.846181
 p    1 1.00
            0.042106             1.000000
 d    1 1.00
            0.175000             1.000000

   22 0
 s    6 1.00
         3047.524900             0.001835
          457.369510             0.014037
          103.948690             0.068843
           29.210155             0.232184
            9.286663             0.467941
            3.163927             0.362312
 s    3 1.00
            7.868272            -0.119332
            1.881288            -0.160854
            0.544249             1.143456
 s    1 1.00
            0.168714             1.000000
 p    3 1.00
            7.868272             0.068999
            1.881288             0.316424
            0.544249             0.744308
 p    1 1.00
            0.168714             1.000000
 d    1 1.00
            0.800000             1.000000

   23 0
 s    6 1.00
         3047.524900             0.001835
          457.369510             0.014037
          103.948690             0.068843
           29.210155             0.232184
            9.286663             0.467941
            3.163927             0.362312
 s    3 1.00
            7.868272            -0.119332
            1.881288            -0.160854
            0.544249             1.143456
 s    1 1.00
            0.168714             1.000000
 p    3 1.00
            7.868272             0.068999
            1.881288             0.316424
            0.544249             0.744308
 p    1 1.00
            0.168714             1.000000
 d    1 1.00
            0.800000             1.000000

   24 0
 s    6 1.00
         4173.511000             0.001835
          627.457900             0.013995
          142.902100             0.068587
           40.234330             0.232241
           12.820210             0.469070
            4.390437             0.360455
 s    3 1.00
           11.626358            -0.114961
            2.716280            -0.169118
            0.772218             1.145852
 s    1 1.00
            0.212031             1.000000
 p    3 1.00
           11.626358             0.067580
            2.716280             0.323907
            0.772218             0.740895
 p    1 1.00
            0.212031             1.000000
 d    1 1.00
            0.800000             1.000000

   25 0
 s    6 1.00
         3047.524900             0.001835
          457.369510             0.014037
          103.948690             0.068843
           29.210155             0.232184
            9.286663             0.467941
            3.163927             0.362312
 s    3 1.00
            7.868272            -0.119332
            1.881288            -0.160854
            0.544249             1.143456
 s    1 1.00
            0.168714             1.000000
 p    3 1.00
            7.868272             0.068999
            1.881288             0.316424
            0.544249             0.744308
 p    1 1.00
            0.168714             1.000000
 d    1 1.00
            0.800000             1.000000

   26 0
 s    3 1.00
           18.731137             0.033495
            2.825394             0.234727
            0.640122             0.813757
 s    1 1.00
            0.161278             1.000000

   27 0
 s    3 1.00
           18.731137             0.033495
            2.825394             0.234727
            0.640122             0.813757
 s    1 1.00
            0.161278             1.000000

   28 0
 s    6 1.00
         3047.524900             0.001835
          457.369510             0.014037
          103.948690             0.068843
           29.210155             0.232184
            9.286663             0.467941
            3.163927             0.362312
 s    3 1.00
            7.868272            -0.119332
            1.881288            -0.160854
            0.544249             1.143456
 s    1 1.00
            0.168714             1.000000
 p    3 1.00
            7.868272             0.068999
            1.881288             0.316424
            0.544249             0.744308
 p    1 1.00
            0.168714             1.000000
 d    1 1.00
            0.800000             1.000000

   29 0
 s    6 1.00
         4173.511000             0.001835
          627.457900             0.013995
          142.902100             0.068587
           40.234330             0.232241
           12.820210             0.469070
            4.390437             0.360455
 s    3 1.00
           11.626358            -0.114961
            2.716280            -0.169118
            0.772218             1.145852
 s    1 1.00
            0.212031             1.000000
 p    3 1.00
           11.626358             0.067580
            2.716280             0.323907
            0.772218             0.740895
 p    1 1.00
            0.212031             1.000000
 d    1 1.00
            0.800000             1.000000

   30 0
 s    6 1.00
         3047.524900             0.001835
          457.369510             0.014037
          103.948690             0.068843
           29.210155             0.232184
            9.286663             0.467941
            3.163927             0.362312
 s    3 1.00
            7.868272            -0.119332
            1.881288            -0.160854
            0.544249             1.143456
 s    1 1.00
            0.168714             1.000000
 p    3 1.00
            7.868272             0.068999
            1.881288             0.316424
            0.544249             0.744308
 p    1 1.00
            0.168714             1.000000
 d    1 1.00
            0.800000             1.000000

   31 0
 s    3 1.00
           18.731137             0.033495
            2.825394             0.234727
            0.640122             0.813757
 s    1 1.00
            0.161278             1.000000

   32 0
 s    3 1.00
           18.731137             0.033495
            2.825394             0.234727
            0.640122             0.813757
 s    1 1.00
            0.161278             1.000000

   33 0
 s    6 1.00
         3047.524900             0.001835
          457.369510             0.014037
          103.948690             0.068843
           29.210155             0.232184
            9.286663             0.467941
            3.163927             0.362312
 s    3 1.00
            7.868272            -0.119332
            1.881288            -0.160854
            0.544249             1.143456
 s    1 1.00
            0.168714             1.000000
 p    3 1.00
            7.868272             0.068999
            1.881288             0.316424
            0.544249             0.744308
 p    1 1.00
            0.168714             1.000000
 d    1 1.00
            0.800000             1.000000

   34 0
 s    6 1.00
         3047.524900             0.001835
          457.369510             0.014037
          103.948690             0.068843
           29.210155             0.232184
            9.286663             0.467941
            3.163927             0.362312
 s    3 1.00
            7.868272            -0.119332
            1.881288            -0.160854
            0.544249             1.143456
 s    1 1.00
            0.168714             1.000000
 p    3 1.00
            7.868272             0.068999
            1.881288             0.316424
            0.544249             0.744308
 p    1 1.00
            0.168714             1.000000
 d    1 1.00
            0.800000             1.000000

   35 0
 s    6 1.00
         3047.524900             0.001835
          457.369510             0.014037
          103.948690             0.068843
           29.210155             0.232184
            9.286663             0.467941
            3.163927             0.362312
 s    3 1.00
            7.868272            -0.119332
            1.881288            -0.160854
            0.544249             1.143456
 s    1 1.00
            0.168714             1.000000
 p    3 1.00
            7.868272             0.068999
            1.881288             0.316424
            0.544249             0.744308
 p    1 1.00
            0.168714             1.000000
 d    1 1.00
            0.800000             1.000000

   36 0
 s    6 1.00
         3047.524900             0.001835
          457.369510             0.014037
          103.948690             0.068843
           29.210155             0.232184
            9.286663             0.467941
            3.163927             0.362312
 s    3 1.00
            7.868272            -0.119332
            1.881288            -0.160854
            0.544249             1.143456
 s    1 1.00
            0.168714             1.000000
 p    3 1.00
            7.868272             0.068999
            1.881288             0.316424
            0.544249             0.744308
 p    1 1.00
            0.168714             1.000000
 d    1 1.00
            0.800000             1.000000

   37 0
 s    6 1.00
         3047.524900             0.001835
          457.369510             0.014037
          103.948690             0.068843
           29.210155             0.232184
            9.286663             0.467941
            3.163927             0.362312
 s    3 1.00
            7.868272            -0.119332
            1.881288            -0.160854
            0.544249             1.143456
 s    1 1.00
            0.168714             1.000000
 p    3 1.00
            7.868272             0.068999
            1.881288             0.316424
            0.544249             0.744308
 p    1 1.00
            0.168714             1.000000
 d    1 1.00
            0.800000             1.000000

   38 0
 s    6 1.00
         3047.524900             0.001835
          457.369510             0.014037
          103.948690             0.068843
           29.210155             0.232184
            9.286663             0.467941
            3.163927             0.362312
 s    3 1.00
            7.868272            -0.119332
            1.881288            -0.160854
            0.544249             1.143456
 s    1 1.00
            0.168714             1.000000
 p    3 1.00
            7.868272             0.068999
            1.881288             0.316424
            0.544249             0.744308
 p    1 1.00
            0.168714             1.000000
 d    1 1.00
            0.800000             1.000000

   39 0
 s    3 1.00
           18.731137             0.033495
            2.825394             0.234727
            0.640122             0.813757
 s    1 1.00
            0.161278             1.000000

   40 0
 s    3 1.00
           18.731137             0.033495
            2.825394             0.234727
            0.640122             0.813757
 s    1 1.00
            0.161278             1.000000

   41 0
 s    6 1.00
         3047.524900             0.001835
          457.369510             0.014037
          103.948690             0.068843
           29.210155             0.232184
            9.286663             0.467941
            3.163927             0.362312
 s    3 1.00
            7.868272            -0.119332
            1.881288            -0.160854
            0.544249             1.143456
 s    1 1.00
            0.168714             1.000000
 p    3 1.00
            7.868272             0.068999
            1.881288             0.316424
            0.544249             0.744308
 p    1 1.00
            0.168714             1.000000
 d    1 1.00
            0.800000             1.000000

   42 0
 s    6 1.00
         5484.671700             0.001831
          825.234950             0.013950
          188.046960             0.068445
           52.964500             0.232714
           16.897570             0.470193
            5.799635             0.358521
 s    3 1.00
           15.539616            -0.110778
            3.599934            -0.148026
            1.013762             1.130767
 s    1 1.00
            0.270006             1.000000
 p    3 1.00
           15.539616             0.070874
            3.599934             0.339753
            1.013762             0.727159
 p    1 1.00
            0.270006             1.000000
 d    1 1.00
            0.800000             1.000000

   43 0
 s    3 1.00
           18.731137             0.033495
            2.825394             0.234727
            0.640122             0.813757
 s    1 1.00
            0.161278             1.000000

   44 0
 s    3 1.00
           18.731137             0.033495
            2.825394             0.234727
            0.640122             0.813757
 s    1 1.00
            0.161278             1.000000

[MO]
 Ene=   -46.3548
 Spin= Alpha
 Occup= 2.0
    1    0.00002
    2   -0.00002
    3    0.00001
    4    0.00008
    5   -0.00028
    6    0.00001
    7    0.00001
    8   -0.00001
    9   -0.00002
   10    0.00012
   11   -0.00011
   12    0.00003
   13   -0.00004
   14   -0.00002
   15    0.00002
   16    0.00001
   17    0.00001
   18    0.00003
   19    0.00010
   20    0.00003
   21   -0.00000
   22    0.00001
   23    0.00008
   24   -0.00028
   25    0.00001
   26    0.00002
   27    0.00001
   28   -0.00004
   29    0.00016
   30    0.00015
   31    0.00003
   32   -0.00004
   33   -0.00002
   34    0.00002
   35   -0.00000
   36   -0.00000
   37    0.00003
   38    0.00009
   39    0.00000
   40   -0.00004
   41   -0.00031
   42   -0.00001
   43   -0.00004
   44   -0.00004
   45    0.00017
   46   -0.00029
   47   -0.00003
   48    0.00002
   49    0.00005
   50    0.00006
   51   -0.00002
   52   -0.00000
   53   -0.00003
   54   -0.00002
   55   -0.00002
   56   -0.00010
   57   -0.00002
   58   -0.00006
   59    0.00009
   60   -0.00026
   61    0.00038
   62    0.00071
   63   -0.00002
   64    0.00002
   65   -0.00026
   66    0.00001
   67    0.00007
   68   -0.00005
   69    0.00003
   70    0.00014
   71   -0.00096
   72    0.00001
   73    0.00001
   74    0.00002
   75    0.00000
   76   -0.00005
   77    0.00032
   78    0.00005
   79    0.00003
   80   -0.00001
   81    0.00001
   82   -0.00001
   83   -0.00000
   84    0.00002
   85    0.00007
   86   -0.00002
   87   -0.00002
   88    0.00006
   89   -0.00002
   90    0.00004
   91   -0.00010
   92   -0.00012
   93    0.00035
   94    0.00066
   95   -0.00002
   96   -0.00018
   97    0.00001
   98    0.00006
   99   -0.00000
  100    0.00004
  101   -0.00003
  102   -0.00001
  103   -0.00021
  104    0.00000
  105   -0.00008
  106   -0.00007
  107   -0.00015
  108    0.00034
  109   -0.00096
  110   -0.00001
  111    0.00001
  112   -0.00029
  113    0.00000
  114   -0.00001
  115   -0.00002
  116    0.00011
  117    0.00023
  118   -0.00246
  119   -0.00003
  120   -0.00024
  121    0.00004
  122   -0.00011
  123    0.00360
  124   -0.00058
  125    0.00028
  126    0.00034
  127    0.00028
  128   -0.00006
  129    0.00001
  130   -0.00001
  131    0.00001
  132    0.00005
  133   -0.00002
  134   -0.00000
  135    0.00000
  136    0.00000
  137    0.00000
  138    0.00014
  139   -0.00007
  140    0.00003
  141    0.00002
  142   -0.00000
  143    0.00000
  144   -0.00000
  145   -0.00000
  146   -0.00000
  147    0.00006
  148    0.00004
  149    0.00011
  150    0.00006
  151    0.00015
  152   -0.00125
  153   -0.00004
  154   -0.00002
  155   -0.00014
  156    0.00020
  157    0.00041
  158    0.00198
  159    0.00016
  160    0.00013
  161    0.00019
  162    0.00000
  163   -0.00002
  164    0.00002
  165   -0.00000
  166   -0.00005
  167   -0.00030
  168   -0.00002
  169   -0.00003
  170    0.00004
  171    0.00015
  172   -0.00035
  173    0.00011
  174    0.00001
  175    0.00005
  176    0.00005
  177   -0.00002
  178   -0.00000
  179    0.00003
  180    0.00001
  181    0.00007
  182   -0.00002
  183   -0.00001
  184   -0.00032
  185    0.00000
  186   -0.00003
  187   -0.00003
  188   -0.00001
  189   -0.00040
  190    0.00004
  191   -0.00002
  192   -0.00018
  193    0.00001
  194    0.00003
  195    0.00000
  196    0.00002
  197    0.99717
  198    0.01251
  199   -0.01003
  200   -0.00167
  201   -0.00006
  202    0.00000
  203    0.00000
  204    0.00079
  205   -0.00018
  206   -0.00014
  207   -0.00011
  208    0.00004
  209    0.00005
  210    0.00494
  211    0.01041
  212    0.00805
  213   -0.00115
  214   -0.00008
  215   -0.00024
  216   -0.00002
  217   -0.00002
  218   -0.00010
  219   -0.00002
  220    0.00007
  221    0.00007
  222    0.00001
  223    0.00022
  224   -0.00062
  225   -0.00001
  226   -0.00021
  227   -0.00000
  228    0.00003
  229   -0.00001
  230    0.00002
  231   -0.00001
  232   -0.00008
  233   -0.00027
  234   -0.00002
  235    0.00001
  236   -0.00003